/*--------------------------------*- C++ -*----------------------------------*\
| =========                 |                                                 |
| \\      /  F ield         | OpenFOAM: The Open Source CFD Toolbox           |
|  \\    /   O peration     | Version:  2.3.x                                 |
|   \\  /    A nd           | Web:      www.OpenFOAM.org                      |
|    \\/     M anipulation  |                                                 |
\*---------------------------------------------------------------------------*/
FoamFile
{
    version     2.0;
    format      ascii;
    class       volScalarField;
    location    "0";
    object      nut;
}
// * * * * * * * * * * * * * * * * * * * * * * * * * * * * * * * * * * * * * //

dimensions      [0 2 -1 0 0 0 0];

internalField   nonuniform List<scalar> 
14751
(
9.94066e-09
1.0098e-08
1.02669e-08
1.04408e-08
1.06451e-08
1.0858e-08
1.11041e-08
1.13311e-08
1.15897e-08
1.18805e-08
1.21348e-08
1.23928e-08
1.26053e-08
1.28806e-08
1.31254e-08
1.34499e-08
1.37437e-08
1.40779e-08
1.43692e-08
1.4639e-08
1.48968e-08
1.51796e-08
1.55031e-08
1.57888e-08
1.61658e-08
1.64411e-08
1.67477e-08
1.71029e-08
1.74231e-08
1.7679e-08
1.7839e-08
1.80164e-08
1.82159e-08
1.85279e-08
1.86877e-08
1.86996e-08
1.87124e-08
1.88006e-08
1.87932e-08
1.88542e-08
1.89947e-08
1.89313e-08
1.88501e-08
1.87611e-08
1.85613e-08
1.82133e-08
1.81351e-08
1.79469e-08
1.77241e-08
1.74039e-08
1.70415e-08
1.67002e-08
1.63981e-08
1.595e-08
1.55963e-08
1.51226e-08
1.45551e-08
1.41136e-08
1.37567e-08
1.3497e-08
1.30757e-08
1.26367e-08
1.22136e-08
1.19257e-08
1.15541e-08
1.1259e-08
1.10301e-08
1.07401e-08
1.06166e-08
1.03213e-08
1.00774e-08
9.86857e-09
9.70087e-09
9.51207e-09
9.35371e-09
9.26836e-09
9.13081e-09
9.07345e-09
9.00067e-09
8.97356e-09
8.91096e-09
8.89744e-09
8.8398e-09
8.78874e-09
8.78496e-09
8.78639e-09
8.78442e-09
8.78463e-09
8.83065e-09
8.89729e-09
8.96798e-09
9.04173e-09
9.11295e-09
9.22543e-09
9.32905e-09
9.45429e-09
9.59332e-09
9.69449e-09
9.80207e-09
3.15968e-08
3.19856e-08
3.24643e-08
3.29763e-08
3.33792e-08
3.41148e-08
3.47952e-08
3.5445e-08
3.62107e-08
3.70332e-08
3.77529e-08
3.84858e-08
3.91567e-08
3.98636e-08
4.07116e-08
4.1524e-08
4.23762e-08
4.37684e-08
4.51615e-08
4.65284e-08
4.77223e-08
4.86115e-08
5.02554e-08
5.17329e-08
5.28423e-08
5.44819e-08
5.59628e-08
5.70913e-08
5.88149e-08
5.95586e-08
6.08084e-08
6.11761e-08
6.19493e-08
6.36267e-08
6.3984e-08
6.41114e-08
6.4851e-08
6.50162e-08
6.50576e-08
6.54197e-08
6.66086e-08
6.61712e-08
6.59463e-08
6.56201e-08
6.50598e-08
6.40147e-08
6.38032e-08
6.33456e-08
6.26314e-08
6.18271e-08
6.06638e-08
5.97621e-08
5.88454e-08
5.76095e-08
5.65285e-08
5.50383e-08
5.34735e-08
5.20648e-08
5.10063e-08
4.9556e-08
4.8533e-08
4.70937e-08
4.56786e-08
4.43141e-08
4.33047e-08
4.23446e-08
4.10398e-08
4.041e-08
3.97551e-08
3.84391e-08
3.76117e-08
3.65358e-08
3.59668e-08
3.47718e-08
3.40323e-08
3.36757e-08
3.27936e-08
3.22089e-08
3.2034e-08
3.13895e-08
3.08069e-08
3.03661e-08
2.98764e-08
2.96555e-08
2.95179e-08
2.95757e-08
2.95193e-08
2.9353e-08
2.94066e-08
2.95297e-08
2.96483e-08
2.974e-08
2.98493e-08
3.00924e-08
3.02415e-08
3.05067e-08
3.08054e-08
3.10847e-08
3.12999e-08
2.20391e-07
2.23258e-07
2.27295e-07
2.32132e-07
2.36172e-07
2.4143e-07
2.47036e-07
2.53406e-07
2.59448e-07
2.6696e-07
2.73351e-07
2.79749e-07
2.8718e-07
2.93523e-07
3.00266e-07
3.07881e-07
3.14834e-07
3.22961e-07
3.29701e-07
3.36542e-07
3.43281e-07
3.50164e-07
3.56634e-07
3.64089e-07
3.71313e-07
3.78863e-07
3.85128e-07
3.91973e-07
3.98577e-07
4.03894e-07
4.09127e-07
4.12384e-07
4.16651e-07
4.21474e-07
4.23962e-07
4.2455e-07
4.25632e-07
4.26084e-07
4.25507e-07
4.2674e-07
4.28809e-07
4.27436e-07
4.24502e-07
4.21645e-07
4.17774e-07
4.12166e-07
4.08856e-07
4.04479e-07
3.99396e-07
3.94452e-07
3.88153e-07
3.81531e-07
3.74741e-07
3.67202e-07
3.60787e-07
3.52066e-07
3.42716e-07
3.35539e-07
3.28297e-07
3.2212e-07
3.15748e-07
3.08503e-07
3.00287e-07
2.9336e-07
2.86525e-07
2.81691e-07
2.76223e-07
2.71208e-07
2.67745e-07
2.61994e-07
2.56685e-07
2.51901e-07
2.47929e-07
2.4355e-07
2.393e-07
2.36782e-07
2.33694e-07
2.31357e-07
2.29167e-07
2.27155e-07
2.24723e-07
2.22758e-07
2.20813e-07
2.18927e-07
2.17401e-07
2.16077e-07
2.15379e-07
2.13616e-07
2.1291e-07
2.12367e-07
2.12369e-07
2.12506e-07
2.11797e-07
2.12059e-07
2.12589e-07
2.13321e-07
2.14422e-07
2.15788e-07
2.17235e-07
5.55451e-07
5.62229e-07
5.74813e-07
5.88837e-07
6.02148e-07
6.17353e-07
6.35298e-07
6.53189e-07
6.72784e-07
6.93612e-07
7.15457e-07
7.3585e-07
7.58163e-07
7.80327e-07
8.01681e-07
8.22795e-07
8.44109e-07
8.66436e-07
8.89303e-07
9.10187e-07
9.29491e-07
9.51235e-07
9.71839e-07
9.92451e-07
1.01253e-06
1.03398e-06
1.05281e-06
1.07058e-06
1.08965e-06
1.10388e-06
1.11827e-06
1.13101e-06
1.14104e-06
1.15296e-06
1.16083e-06
1.16256e-06
1.16543e-06
1.16863e-06
1.16679e-06
1.16649e-06
1.16948e-06
1.16687e-06
1.1594e-06
1.15103e-06
1.14264e-06
1.13084e-06
1.11931e-06
1.10773e-06
1.09395e-06
1.08089e-06
1.06659e-06
1.0496e-06
1.03189e-06
1.01235e-06
9.94677e-07
9.7487e-07
9.52475e-07
9.34857e-07
9.16379e-07
9.00547e-07
8.84544e-07
8.66847e-07
8.46955e-07
8.28568e-07
8.11837e-07
7.96049e-07
7.83451e-07
7.69444e-07
7.5738e-07
7.45054e-07
7.29483e-07
7.15195e-07
7.03723e-07
6.91682e-07
6.79908e-07
6.70223e-07
6.59905e-07
6.5193e-07
6.43902e-07
6.36067e-07
6.27339e-07
6.19344e-07
6.1104e-07
6.02795e-07
5.96625e-07
5.8881e-07
5.82551e-07
5.75596e-07
5.69724e-07
5.65291e-07
5.60313e-07
5.5615e-07
5.5136e-07
5.48632e-07
5.45434e-07
5.44216e-07
5.43741e-07
5.46885e-07
5.48464e-07
1.12954e-06
1.13974e-06
1.16216e-06
1.19092e-06
1.21379e-06
1.24355e-06
1.28265e-06
1.32217e-06
1.36386e-06
1.4074e-06
1.45442e-06
1.50244e-06
1.54951e-06
1.59671e-06
1.64493e-06
1.68962e-06
1.73907e-06
1.78206e-06
1.82932e-06
1.87516e-06
1.91823e-06
1.96254e-06
2.00829e-06
2.05411e-06
2.0955e-06
2.13523e-06
2.17638e-06
2.21343e-06
2.24964e-06
2.28359e-06
2.31152e-06
2.33963e-06
2.36176e-06
2.38055e-06
2.39736e-06
2.40878e-06
2.41062e-06
2.4142e-06
2.41544e-06
2.40882e-06
2.41129e-06
2.40559e-06
2.39243e-06
2.37624e-06
2.36017e-06
2.33817e-06
2.31374e-06
2.28873e-06
2.2622e-06
2.23592e-06
2.20616e-06
2.17246e-06
2.1429e-06
2.10583e-06
2.07007e-06
2.03016e-06
1.99093e-06
1.95461e-06
1.92104e-06
1.89019e-06
1.85788e-06
1.82272e-06
1.78846e-06
1.75074e-06
1.71953e-06
1.68806e-06
1.65892e-06
1.63116e-06
1.60392e-06
1.57993e-06
1.55041e-06
1.52069e-06
1.49458e-06
1.46978e-06
1.447e-06
1.42352e-06
1.4021e-06
1.38253e-06
1.36353e-06
1.34382e-06
1.32427e-06
1.30354e-06
1.28472e-06
1.26404e-06
1.24874e-06
1.22986e-06
1.21243e-06
1.19313e-06
1.17838e-06
1.16408e-06
1.15213e-06
1.13849e-06
1.12462e-06
1.11548e-06
1.1095e-06
1.10732e-06
1.10368e-06
1.10901e-06
1.11538e-06
2.05012e-06
2.06869e-06
2.11255e-06
2.16848e-06
2.21038e-06
2.2563e-06
2.30599e-06
2.3689e-06
2.42967e-06
2.50126e-06
2.58524e-06
2.66913e-06
2.75602e-06
2.83927e-06
2.92535e-06
3.00165e-06
3.08696e-06
3.16915e-06
3.24932e-06
3.32861e-06
3.40552e-06
3.4831e-06
3.56456e-06
3.64339e-06
3.72474e-06
3.79273e-06
3.85819e-06
3.92843e-06
3.9873e-06
4.04477e-06
4.09537e-06
4.14085e-06
4.18129e-06
4.21487e-06
4.23895e-06
4.26179e-06
4.27428e-06
4.27698e-06
4.28004e-06
4.26803e-06
4.26116e-06
4.25057e-06
4.22739e-06
4.20108e-06
4.17304e-06
4.13718e-06
4.09647e-06
4.04779e-06
4.00128e-06
3.95648e-06
3.90625e-06
3.84516e-06
3.79549e-06
3.73719e-06
3.68346e-06
3.61828e-06
3.54777e-06
3.4867e-06
3.42692e-06
3.37685e-06
3.32612e-06
3.26443e-06
3.20776e-06
3.1485e-06
3.09128e-06
3.04025e-06
2.99203e-06
2.94022e-06
2.89482e-06
2.84801e-06
2.80003e-06
2.75284e-06
2.70577e-06
2.66072e-06
2.61991e-06
2.58046e-06
2.53857e-06
2.5046e-06
2.47077e-06
2.43317e-06
2.39737e-06
2.35952e-06
2.32504e-06
2.28891e-06
2.25807e-06
2.22398e-06
2.19147e-06
2.15734e-06
2.12699e-06
2.09805e-06
2.08242e-06
2.06998e-06
2.05156e-06
2.03314e-06
2.01548e-06
2.00963e-06
2.00505e-06
2.009e-06
2.01991e-06
3.26699e-06
3.29758e-06
3.37595e-06
3.47469e-06
3.55853e-06
3.65872e-06
3.74706e-06
3.85209e-06
3.9498e-06
4.04421e-06
4.14727e-06
4.27814e-06
4.42065e-06
4.5538e-06
4.69025e-06
4.81797e-06
4.94998e-06
5.0777e-06
5.20853e-06
5.33361e-06
5.45865e-06
5.57889e-06
5.71079e-06
5.83437e-06
5.95958e-06
6.08032e-06
6.18889e-06
6.28895e-06
6.39088e-06
6.47978e-06
6.55806e-06
6.62484e-06
6.68653e-06
6.73996e-06
6.78491e-06
6.81603e-06
6.8402e-06
6.8576e-06
6.86054e-06
6.85852e-06
6.84527e-06
6.82262e-06
6.79235e-06
6.74384e-06
6.70157e-06
6.65283e-06
6.5901e-06
6.51971e-06
6.44145e-06
6.36811e-06
6.28965e-06
6.19418e-06
6.1091e-06
6.02335e-06
5.93334e-06
5.84337e-06
5.73429e-06
5.62693e-06
5.53216e-06
5.43917e-06
5.36349e-06
5.27417e-06
5.17267e-06
5.08705e-06
5.00141e-06
4.92067e-06
4.84462e-06
4.76398e-06
4.69468e-06
4.62078e-06
4.54459e-06
4.47023e-06
4.4006e-06
4.33162e-06
4.26719e-06
4.20365e-06
4.13803e-06
4.07843e-06
4.02355e-06
3.9659e-06
3.90622e-06
3.84576e-06
3.79153e-06
3.73587e-06
3.68304e-06
3.63067e-06
3.57614e-06
3.52307e-06
3.47391e-06
3.43622e-06
3.39014e-06
3.36202e-06
3.33371e-06
3.30296e-06
3.26268e-06
3.23517e-06
3.21283e-06
3.21384e-06
3.21776e-06
4.77888e-06
4.82222e-06
4.93253e-06
5.07369e-06
5.18588e-06
5.33704e-06
5.50082e-06
5.68412e-06
5.86896e-06
6.05391e-06
6.20063e-06
6.36938e-06
6.57186e-06
6.77487e-06
6.97095e-06
7.16548e-06
7.36393e-06
7.55341e-06
7.74816e-06
7.93403e-06
8.12249e-06
8.30568e-06
8.49327e-06
8.69411e-06
8.8718e-06
9.04342e-06
9.21113e-06
9.3669e-06
9.51614e-06
9.66849e-06
9.80963e-06
9.92138e-06
1.00268e-05
1.01263e-05
1.02003e-05
1.02699e-05
1.03112e-05
1.03386e-05
1.03322e-05
1.03202e-05
1.03101e-05
1.02678e-05
1.02236e-05
1.01506e-05
1.00794e-05
1.00117e-05
9.91636e-06
9.81585e-06
9.69546e-06
9.58389e-06
9.47212e-06
9.34133e-06
9.20978e-06
9.09347e-06
8.96164e-06
8.82265e-06
8.67801e-06
8.52071e-06
8.38569e-06
8.25331e-06
8.13379e-06
8.01522e-06
7.8717e-06
7.72352e-06
7.58997e-06
7.46743e-06
7.3338e-06
7.20893e-06
7.08528e-06
6.96488e-06
6.83911e-06
6.7252e-06
6.62736e-06
6.53005e-06
6.43785e-06
6.34181e-06
6.2535e-06
6.16104e-06
6.07857e-06
5.99191e-06
5.90669e-06
5.81737e-06
5.7411e-06
5.66053e-06
5.58102e-06
5.50202e-06
5.42582e-06
5.3419e-06
5.24933e-06
5.1763e-06
5.102e-06
5.01314e-06
4.94134e-06
4.86798e-06
4.80179e-06
4.75659e-06
4.71028e-06
4.71067e-06
4.713e-06
6.68946e-06
6.73946e-06
6.88089e-06
7.07409e-06
7.22166e-06
7.4221e-06
7.6406e-06
7.88854e-06
8.14586e-06
8.41197e-06
8.6925e-06
8.93466e-06
9.20815e-06
9.48803e-06
9.78159e-06
1.00516e-05
1.03336e-05
1.05947e-05
1.08685e-05
1.11363e-05
1.14031e-05
1.16815e-05
1.19422e-05
1.22206e-05
1.25157e-05
1.28049e-05
1.30573e-05
1.33139e-05
1.35429e-05
1.37363e-05
1.3932e-05
1.40993e-05
1.42371e-05
1.43766e-05
1.44814e-05
1.45771e-05
1.4645e-05
1.46766e-05
1.46667e-05
1.46358e-05
1.45889e-05
1.45184e-05
1.44205e-05
1.43274e-05
1.42241e-05
1.41122e-05
1.39836e-05
1.38366e-05
1.36663e-05
1.3505e-05
1.33455e-05
1.31726e-05
1.30035e-05
1.28339e-05
1.26607e-05
1.24741e-05
1.22813e-05
1.20908e-05
1.19095e-05
1.17412e-05
1.15856e-05
1.14331e-05
1.12611e-05
1.1086e-05
1.09077e-05
1.0741e-05
1.05604e-05
1.03949e-05
1.02277e-05
1.00717e-05
9.89483e-06
9.69902e-06
9.51407e-06
9.35632e-06
9.19346e-06
9.03022e-06
8.90658e-06
8.78309e-06
8.67142e-06
8.54897e-06
8.43113e-06
8.31218e-06
8.19827e-06
8.09529e-06
7.98838e-06
7.87668e-06
7.77294e-06
7.64188e-06
7.49141e-06
7.31246e-06
7.19094e-06
7.06717e-06
6.95341e-06
6.84347e-06
6.74291e-06
6.67235e-06
6.60297e-06
6.59852e-06
6.60754e-06
9.0045e-06
9.06271e-06
9.23138e-06
9.47324e-06
9.66153e-06
9.92209e-06
1.01989e-05
1.05161e-05
1.08487e-05
1.11829e-05
1.1593e-05
1.1928e-05
1.23115e-05
1.26832e-05
1.30834e-05
1.34544e-05
1.38411e-05
1.42048e-05
1.45702e-05
1.494e-05
1.53241e-05
1.5765e-05
1.61984e-05
1.65938e-05
1.69604e-05
1.73409e-05
1.76918e-05
1.80251e-05
1.83461e-05
1.8593e-05
1.87867e-05
1.8978e-05
1.91206e-05
1.92449e-05
1.93589e-05
1.94586e-05
1.95221e-05
1.9555e-05
1.95468e-05
1.95117e-05
1.946e-05
1.93439e-05
1.92129e-05
1.9088e-05
1.89744e-05
1.88324e-05
1.86569e-05
1.84671e-05
1.82585e-05
1.80396e-05
1.78365e-05
1.75987e-05
1.73742e-05
1.71389e-05
1.68896e-05
1.66394e-05
1.6391e-05
1.61411e-05
1.59046e-05
1.5693e-05
1.5476e-05
1.52844e-05
1.50784e-05
1.48695e-05
1.4681e-05
1.44911e-05
1.43012e-05
1.41222e-05
1.39434e-05
1.37796e-05
1.36361e-05
1.3422e-05
1.31879e-05
1.29736e-05
1.27636e-05
1.25199e-05
1.22593e-05
1.20417e-05
1.1832e-05
1.1656e-05
1.15043e-05
1.13513e-05
1.11942e-05
1.10458e-05
1.09106e-05
1.07571e-05
1.06205e-05
1.04528e-05
1.02402e-05
9.93176e-06
9.73874e-06
9.57228e-06
9.41404e-06
9.27189e-06
9.11771e-06
9.01897e-06
8.91491e-06
8.89693e-06
8.90224e-06
1.17188e-05
1.17863e-05
1.19732e-05
1.22701e-05
1.24863e-05
1.28003e-05
1.31382e-05
1.35303e-05
1.39391e-05
1.44114e-05
1.48796e-05
1.53407e-05
1.58203e-05
1.63233e-05
1.68347e-05
1.73319e-05
1.78218e-05
1.83036e-05
1.88813e-05
1.94535e-05
2.00031e-05
2.05395e-05
2.10978e-05
2.16459e-05
2.21086e-05
2.2498e-05
2.28619e-05
2.3204e-05
2.35315e-05
2.38557e-05
2.4134e-05
2.44053e-05
2.46451e-05
2.48386e-05
2.50198e-05
2.52117e-05
2.5348e-05
2.54264e-05
2.54622e-05
2.54293e-05
2.53545e-05
2.52197e-05
2.50469e-05
2.48943e-05
2.47305e-05
2.45478e-05
2.4324e-05
2.40758e-05
2.38229e-05
2.35518e-05
2.32894e-05
2.2999e-05
2.27119e-05
2.24137e-05
2.20922e-05
2.17958e-05
2.15048e-05
2.11965e-05
2.08684e-05
2.05867e-05
2.02974e-05
2.00191e-05
1.97475e-05
1.94479e-05
1.9146e-05
1.88704e-05
1.86015e-05
1.83412e-05
1.80886e-05
1.78396e-05
1.76501e-05
1.74602e-05
1.72621e-05
1.70707e-05
1.6898e-05
1.67195e-05
1.64402e-05
1.6156e-05
1.58483e-05
1.55179e-05
1.52071e-05
1.4911e-05
1.47235e-05
1.45253e-05
1.43453e-05
1.41458e-05
1.39465e-05
1.37339e-05
1.35291e-05
1.31382e-05
1.27573e-05
1.25287e-05
1.23076e-05
1.21201e-05
1.19228e-05
1.17866e-05
1.16434e-05
1.16069e-05
1.16029e-05
1.47914e-05
1.48713e-05
1.50529e-05
1.54093e-05
1.56575e-05
1.60235e-05
1.6419e-05
1.68907e-05
1.74317e-05
1.79844e-05
1.8507e-05
1.90707e-05
1.96786e-05
2.02949e-05
2.09587e-05
2.16244e-05
2.23589e-05
2.30133e-05
2.3696e-05
2.44458e-05
2.51957e-05
2.5823e-05
2.64011e-05
2.69513e-05
2.75044e-05
2.80883e-05
2.86368e-05
2.91476e-05
2.96184e-05
3.00412e-05
3.03986e-05
3.07045e-05
3.09721e-05
3.12202e-05
3.14544e-05
3.16858e-05
3.18799e-05
3.1998e-05
3.20453e-05
3.20091e-05
3.18843e-05
3.17347e-05
3.14879e-05
3.13002e-05
3.10749e-05
3.07966e-05
3.05215e-05
3.02189e-05
2.99015e-05
2.96117e-05
2.92701e-05
2.89291e-05
2.85705e-05
2.82299e-05
2.78682e-05
2.7531e-05
2.72166e-05
2.69154e-05
2.65722e-05
2.62281e-05
2.58988e-05
2.55763e-05
2.52475e-05
2.48876e-05
2.45232e-05
2.41752e-05
2.38516e-05
2.35366e-05
2.32293e-05
2.28815e-05
2.25349e-05
2.22198e-05
2.19123e-05
2.15977e-05
2.13039e-05
2.10837e-05
2.08814e-05
2.0682e-05
2.04927e-05
2.01787e-05
1.9806e-05
1.9351e-05
1.89047e-05
1.85326e-05
1.82488e-05
1.79924e-05
1.77472e-05
1.74673e-05
1.71987e-05
1.69081e-05
1.63922e-05
1.59187e-05
1.56289e-05
1.53695e-05
1.51193e-05
1.49479e-05
1.47511e-05
1.46775e-05
1.46704e-05
1.81652e-05
1.82488e-05
1.84176e-05
1.88029e-05
1.90924e-05
1.95112e-05
2.00063e-05
2.05783e-05
2.12007e-05
2.17629e-05
2.23797e-05
2.30557e-05
2.38134e-05
2.46229e-05
2.55308e-05
2.6325e-05
2.71861e-05
2.80776e-05
2.8831e-05
2.96185e-05
3.04179e-05
3.13379e-05
3.21786e-05
3.29704e-05
3.36788e-05
3.43376e-05
3.50051e-05
3.56355e-05
3.62292e-05
3.67316e-05
3.71208e-05
3.74532e-05
3.77456e-05
3.80206e-05
3.83126e-05
3.85455e-05
3.87541e-05
3.88473e-05
3.88918e-05
3.88236e-05
3.8673e-05
3.85133e-05
3.8295e-05
3.80963e-05
3.78341e-05
3.75284e-05
3.7149e-05
3.67895e-05
3.64361e-05
3.60965e-05
3.57031e-05
3.53007e-05
3.48885e-05
3.44846e-05
3.41175e-05
3.37346e-05
3.33621e-05
3.30026e-05
3.26149e-05
3.22601e-05
3.18951e-05
3.15178e-05
3.11485e-05
3.07456e-05
3.0328e-05
2.99432e-05
2.95902e-05
2.92439e-05
2.89467e-05
2.86608e-05
2.82854e-05
2.78983e-05
2.75192e-05
2.71569e-05
2.67522e-05
2.6323e-05
2.59192e-05
2.55464e-05
2.51829e-05
2.49369e-05
2.47034e-05
2.44415e-05
2.3954e-05
2.3402e-05
2.28505e-05
2.2325e-05
2.19476e-05
2.15939e-05
2.12512e-05
2.09098e-05
2.05511e-05
1.99297e-05
1.93487e-05
1.89918e-05
1.86576e-05
1.84316e-05
1.82083e-05
1.80923e-05
1.80301e-05
2.17601e-05
2.18472e-05
2.20131e-05
2.24029e-05
2.27093e-05
2.32394e-05
2.37945e-05
2.44513e-05
2.50291e-05
2.56913e-05
2.64492e-05
2.72695e-05
2.82702e-05
2.92279e-05
3.02762e-05
3.12299e-05
3.21321e-05
3.30281e-05
3.40795e-05
3.51656e-05
3.62114e-05
3.72454e-05
3.82857e-05
3.92639e-05
4.01537e-05
4.09384e-05
4.17005e-05
4.23875e-05
4.30459e-05
4.35598e-05
4.40243e-05
4.43938e-05
4.47758e-05
4.51014e-05
4.54508e-05
4.57498e-05
4.59479e-05
4.60308e-05
4.60884e-05
4.60352e-05
4.5955e-05
4.57972e-05
4.56729e-05
4.54426e-05
4.51922e-05
4.48447e-05
4.44239e-05
4.39873e-05
4.36208e-05
4.32525e-05
4.28623e-05
4.23974e-05
4.1947e-05
4.15386e-05
4.11267e-05
4.07671e-05
4.03756e-05
3.99592e-05
3.94906e-05
3.90812e-05
3.86407e-05
3.81449e-05
3.76953e-05
3.72773e-05
3.68068e-05
3.63342e-05
3.59424e-05
3.55003e-05
3.50896e-05
3.4677e-05
3.42715e-05
3.3888e-05
3.34934e-05
3.312e-05
3.27882e-05
3.23712e-05
3.19107e-05
3.14158e-05
3.08757e-05
3.03453e-05
2.98726e-05
2.93705e-05
2.90349e-05
2.87023e-05
2.81877e-05
2.74985e-05
2.67773e-05
2.61162e-05
2.56168e-05
2.51879e-05
2.47713e-05
2.43545e-05
2.36328e-05
2.29811e-05
2.24781e-05
2.2198e-05
2.19054e-05
2.17744e-05
2.16545e-05
2.55121e-05
2.55797e-05
2.57199e-05
2.61893e-05
2.6556e-05
2.70891e-05
2.76857e-05
2.82757e-05
2.89422e-05
2.97351e-05
3.0698e-05
3.1678e-05
3.27821e-05
3.38713e-05
3.49113e-05
3.60203e-05
3.72117e-05
3.83298e-05
3.95533e-05
4.07927e-05
4.20907e-05
4.33033e-05
4.44693e-05
4.56106e-05
4.66267e-05
4.75474e-05
4.84338e-05
4.92431e-05
4.99685e-05
5.06492e-05
5.12772e-05
5.17987e-05
5.22102e-05
5.2599e-05
5.29647e-05
5.3265e-05
5.3407e-05
5.3486e-05
5.34906e-05
5.33793e-05
5.32784e-05
5.30718e-05
5.28698e-05
5.2565e-05
5.22508e-05
5.18771e-05
5.14382e-05
5.10226e-05
5.06338e-05
5.02713e-05
4.98585e-05
4.94133e-05
4.89668e-05
4.85371e-05
4.81432e-05
4.77846e-05
4.74378e-05
4.70473e-05
4.66635e-05
4.62427e-05
4.58305e-05
4.53379e-05
4.48089e-05
4.43614e-05
4.39551e-05
4.34762e-05
4.3052e-05
4.26287e-05
4.22031e-05
4.16558e-05
4.1052e-05
4.06086e-05
4.01343e-05
3.96575e-05
3.9103e-05
3.85738e-05
3.81025e-05
3.76189e-05
3.71632e-05
3.65704e-05
3.5966e-05
3.52719e-05
3.45397e-05
3.39104e-05
3.33346e-05
3.28885e-05
3.22348e-05
3.13744e-05
3.05327e-05
2.97405e-05
2.91755e-05
2.86722e-05
2.81648e-05
2.74479e-05
2.66867e-05
2.61808e-05
2.57687e-05
2.56052e-05
2.54471e-05
2.93484e-05
2.94513e-05
2.95952e-05
3.00329e-05
3.04259e-05
3.09185e-05
3.14305e-05
3.21053e-05
3.29719e-05
3.38838e-05
3.48808e-05
3.60334e-05
3.71207e-05
3.84189e-05
3.96872e-05
4.08855e-05
4.22385e-05
4.35859e-05
4.49973e-05
4.64245e-05
4.7783e-05
4.91263e-05
5.04879e-05
5.17565e-05
5.31817e-05
5.43771e-05
5.53908e-05
5.62838e-05
5.70224e-05
5.76164e-05
5.81632e-05
5.87014e-05
5.92177e-05
5.96959e-05
6.01719e-05
6.05924e-05
6.09011e-05
6.11023e-05
6.11323e-05
6.11125e-05
6.09834e-05
6.08341e-05
6.05508e-05
6.03127e-05
5.99714e-05
5.96015e-05
5.91865e-05
5.88646e-05
5.85107e-05
5.81323e-05
5.77177e-05
5.73043e-05
5.68973e-05
5.64359e-05
5.60605e-05
5.57086e-05
5.53416e-05
5.4938e-05
5.45848e-05
5.41491e-05
5.36934e-05
5.31989e-05
5.2627e-05
5.2037e-05
5.14703e-05
5.09186e-05
5.03337e-05
4.98435e-05
4.93839e-05
4.89272e-05
4.84339e-05
4.79215e-05
4.74842e-05
4.69674e-05
4.63591e-05
4.55192e-05
4.49097e-05
4.42895e-05
4.35488e-05
4.28167e-05
4.21666e-05
4.15049e-05
4.07547e-05
3.99245e-05
3.90253e-05
3.81422e-05
3.73545e-05
3.67417e-05
3.59402e-05
3.48987e-05
3.39028e-05
3.30737e-05
3.24591e-05
3.18868e-05
3.11923e-05
3.05206e-05
2.98815e-05
2.95514e-05
2.93189e-05
3.32817e-05
3.32839e-05
3.34011e-05
3.37933e-05
3.40451e-05
3.45138e-05
3.51723e-05
3.59559e-05
3.68188e-05
3.78435e-05
3.88722e-05
4.01446e-05
4.14621e-05
4.27583e-05
4.42547e-05
4.56873e-05
4.72007e-05
4.86404e-05
5.00933e-05
5.16728e-05
5.33491e-05
5.49426e-05
5.64954e-05
5.78926e-05
5.91582e-05
6.04936e-05
6.17525e-05
6.29139e-05
6.3967e-05
6.47253e-05
6.53677e-05
6.58968e-05
6.63592e-05
6.6714e-05
6.70897e-05
6.74785e-05
6.78665e-05
6.81325e-05
6.82785e-05
6.83602e-05
6.83701e-05
6.83058e-05
6.81377e-05
6.79075e-05
6.76622e-05
6.73645e-05
6.70832e-05
6.68228e-05
6.65613e-05
6.61857e-05
6.58423e-05
6.54491e-05
6.50215e-05
6.45564e-05
6.41222e-05
6.37438e-05
6.33365e-05
6.28998e-05
6.24092e-05
6.18744e-05
6.13275e-05
6.08346e-05
6.03626e-05
5.98168e-05
5.9296e-05
5.89468e-05
5.84717e-05
5.80158e-05
5.7566e-05
5.71232e-05
5.66607e-05
5.59087e-05
5.51979e-05
5.43932e-05
5.36882e-05
5.29107e-05
5.21544e-05
5.14692e-05
5.06728e-05
4.95708e-05
4.87051e-05
4.77457e-05
4.67988e-05
4.59237e-05
4.5062e-05
4.40318e-05
4.2931e-05
4.17956e-05
4.08425e-05
4.00599e-05
3.90021e-05
3.78961e-05
3.68097e-05
3.60134e-05
3.53342e-05
3.47992e-05
3.41455e-05
3.36946e-05
3.33383e-05
3.70312e-05
3.68863e-05
3.68567e-05
3.71792e-05
3.75124e-05
3.80229e-05
3.86531e-05
3.95227e-05
4.03631e-05
4.14938e-05
4.26482e-05
4.38963e-05
4.54423e-05
4.6944e-05
4.84789e-05
4.99615e-05
5.16521e-05
5.34885e-05
5.51894e-05
5.68141e-05
5.83672e-05
6.00108e-05
6.18552e-05
6.37034e-05
6.51889e-05
6.65421e-05
6.76839e-05
6.88924e-05
6.99917e-05
7.10558e-05
7.19825e-05
7.27724e-05
7.33578e-05
7.38121e-05
7.42403e-05
7.45442e-05
7.48459e-05
7.52051e-05
7.53692e-05
7.5518e-05
7.56003e-05
7.55321e-05
7.54554e-05
7.52866e-05
7.5069e-05
7.48409e-05
7.46267e-05
7.44613e-05
7.42318e-05
7.3947e-05
7.35997e-05
7.31992e-05
7.27867e-05
7.24672e-05
7.20893e-05
7.17242e-05
7.13585e-05
7.10004e-05
7.05679e-05
7.00865e-05
6.96248e-05
6.91757e-05
6.87335e-05
6.83905e-05
6.80273e-05
6.76608e-05
6.73146e-05
6.68062e-05
6.61628e-05
6.54614e-05
6.47333e-05
6.39547e-05
6.3287e-05
6.2588e-05
6.18086e-05
6.09978e-05
5.9794e-05
5.85895e-05
5.75253e-05
5.64329e-05
5.53808e-05
5.43799e-05
5.30551e-05
5.1904e-05
5.07448e-05
4.95317e-05
4.84857e-05
4.72531e-05
4.59229e-05
4.46457e-05
4.35465e-05
4.26454e-05
4.14679e-05
4.03233e-05
3.92846e-05
3.85756e-05
3.79461e-05
3.75352e-05
3.71057e-05
4.02862e-05
4.00899e-05
4.0107e-05
4.03918e-05
4.06093e-05
4.11337e-05
4.17051e-05
4.26463e-05
4.35524e-05
4.46384e-05
4.59895e-05
4.74655e-05
4.8907e-05
5.03923e-05
5.21961e-05
5.39506e-05
5.57871e-05
5.74916e-05
5.94478e-05
6.14323e-05
6.32881e-05
6.49839e-05
6.666e-05
6.85721e-05
7.0399e-05
7.20082e-05
7.33489e-05
7.44891e-05
7.56569e-05
7.69007e-05
7.79858e-05
7.89098e-05
7.9662e-05
8.04445e-05
8.11424e-05
8.15668e-05
8.19088e-05
8.22165e-05
8.24425e-05
8.25801e-05
8.26434e-05
8.26344e-05
8.26029e-05
8.25845e-05
8.24544e-05
8.23377e-05
8.22023e-05
8.207e-05
8.1853e-05
8.17004e-05
8.13663e-05
8.10869e-05
8.0784e-05
8.05826e-05
8.03745e-05
8.00202e-05
7.9702e-05
7.94287e-05
7.91971e-05
7.88919e-05
7.85572e-05
7.81622e-05
7.77693e-05
7.75174e-05
7.72683e-05
7.66616e-05
7.6145e-05
7.55751e-05
7.49428e-05
7.41894e-05
7.34304e-05
7.26688e-05
7.19156e-05
7.1189e-05
7.00178e-05
6.87635e-05
6.73296e-05
6.60739e-05
6.47405e-05
6.34124e-05
6.18319e-05
6.04485e-05
5.91052e-05
5.78133e-05
5.64884e-05
5.5005e-05
5.35943e-05
5.2137e-05
5.08213e-05
4.94077e-05
4.80165e-05
4.66754e-05
4.55619e-05
4.45646e-05
4.33932e-05
4.23995e-05
4.14895e-05
4.09229e-05
4.03459e-05
4.33566e-05
4.29795e-05
4.28984e-05
4.31341e-05
4.32957e-05
4.37873e-05
4.4298e-05
4.51262e-05
4.62432e-05
4.74125e-05
4.87029e-05
5.01393e-05
5.18864e-05
5.35192e-05
5.51246e-05
5.70117e-05
5.92388e-05
6.11994e-05
6.31342e-05
6.51729e-05
6.73191e-05
6.94605e-05
7.12613e-05
7.30181e-05
7.49215e-05
7.66118e-05
7.82687e-05
7.96239e-05
8.09054e-05
8.23502e-05
8.36196e-05
8.46764e-05
8.56758e-05
8.66445e-05
8.74634e-05
8.81389e-05
8.86107e-05
8.89373e-05
8.92218e-05
8.934e-05
8.93729e-05
8.95069e-05
8.96312e-05
8.96946e-05
8.97709e-05
8.97134e-05
8.97438e-05
8.9632e-05
8.95205e-05
8.94052e-05
8.93477e-05
8.92684e-05
8.91917e-05
8.90596e-05
8.89804e-05
8.87979e-05
8.84526e-05
8.8245e-05
8.81198e-05
8.79754e-05
8.78048e-05
8.7613e-05
8.73394e-05
8.69527e-05
8.64945e-05
8.59777e-05
8.5372e-05
8.47358e-05
8.40186e-05
8.32033e-05
8.22769e-05
8.15415e-05
8.04786e-05
7.92616e-05
7.7985e-05
7.66075e-05
7.50882e-05
7.35255e-05
7.17745e-05
6.99043e-05
6.81097e-05
6.65651e-05
6.50617e-05
6.33134e-05
6.1722e-05
6.01449e-05
5.8645e-05
5.68364e-05
5.5195e-05
5.35617e-05
5.21285e-05
5.06945e-05
4.93375e-05
4.80602e-05
4.6865e-05
4.59606e-05
4.49621e-05
4.42416e-05
4.34713e-05
4.59345e-05
4.53958e-05
4.52115e-05
4.53474e-05
4.54281e-05
4.57856e-05
4.6366e-05
4.71826e-05
4.81828e-05
4.93416e-05
5.09038e-05
5.2329e-05
5.38389e-05
5.56706e-05
5.75526e-05
5.94553e-05
6.164e-05
6.39815e-05
6.61721e-05
6.82578e-05
7.05511e-05
7.28753e-05
7.51203e-05
7.69919e-05
7.88797e-05
8.07538e-05
8.25809e-05
8.43044e-05
8.58345e-05
8.73599e-05
8.88047e-05
9.01056e-05
9.13229e-05
9.24176e-05
9.33067e-05
9.40602e-05
9.46336e-05
9.512e-05
9.54802e-05
9.57092e-05
9.58097e-05
9.60808e-05
9.62861e-05
9.64519e-05
9.6666e-05
9.69885e-05
9.70802e-05
9.71763e-05
9.72567e-05
9.73481e-05
9.75592e-05
9.77671e-05
9.79796e-05
9.814e-05
9.81937e-05
9.81683e-05
9.79427e-05
9.77586e-05
9.75662e-05
9.74731e-05
9.75008e-05
9.74894e-05
9.72219e-05
9.67208e-05
9.6154e-05
9.55667e-05
9.47884e-05
9.39139e-05
9.29757e-05
9.2033e-05
9.07704e-05
8.96553e-05
8.84279e-05
8.70773e-05
8.56606e-05
8.40359e-05
8.24428e-05
8.04103e-05
7.83574e-05
7.62703e-05
7.4354e-05
7.23562e-05
7.03455e-05
6.83849e-05
6.67001e-05
6.48514e-05
6.29062e-05
6.10496e-05
5.92589e-05
5.73797e-05
5.56674e-05
5.40339e-05
5.26579e-05
5.13458e-05
4.9935e-05
4.87717e-05
4.77005e-05
4.69506e-05
4.6037e-05
4.79243e-05
4.72107e-05
4.68391e-05
4.68683e-05
4.70013e-05
4.73478e-05
4.76786e-05
4.83658e-05
4.94553e-05
5.06606e-05
5.20109e-05
5.36263e-05
5.52004e-05
5.67951e-05
5.8987e-05
6.1155e-05
6.32912e-05
6.56934e-05
6.82397e-05
7.05224e-05
7.29168e-05
7.54397e-05
7.78991e-05
8.01095e-05
8.21923e-05
8.42952e-05
8.64217e-05
8.84192e-05
9.03007e-05
9.19081e-05
9.3497e-05
9.51126e-05
9.64944e-05
9.76835e-05
9.86894e-05
9.95343e-05
0.000100268
0.000100896
0.000101422
0.000101809
0.000102183
0.000102414
0.00010265
0.000103081
0.000103528
0.00010411
0.000104506
0.000104861
0.000105253
0.000105691
0.000106171
0.000106714
0.000107253
0.000107875
0.000108212
0.000108246
0.000108297
0.000108117
0.000107888
0.000107827
0.00010788
0.000107831
0.00010762
0.000106987
0.00010618
0.000105229
0.000104092
0.000102767
0.000101436
0.000100274
9.88797e-05
9.70985e-05
9.57021e-05
9.42642e-05
9.26588e-05
9.08375e-05
8.88026e-05
8.66422e-05
8.44969e-05
8.21844e-05
7.99799e-05
7.75358e-05
7.51944e-05
7.30827e-05
7.09554e-05
6.88082e-05
6.67653e-05
6.47456e-05
6.26667e-05
6.06712e-05
5.87771e-05
5.69418e-05
5.53327e-05
5.38287e-05
5.24139e-05
5.12061e-05
5.00301e-05
4.91454e-05
4.80424e-05
4.93166e-05
4.83773e-05
4.79924e-05
4.78295e-05
4.77661e-05
4.80115e-05
4.83628e-05
4.88934e-05
4.97248e-05
5.10929e-05
5.23504e-05
5.37614e-05
5.54872e-05
5.71437e-05
5.93403e-05
6.17234e-05
6.40471e-05
6.65021e-05
6.92366e-05
7.18697e-05
7.44326e-05
7.71399e-05
7.97661e-05
8.22637e-05
8.46538e-05
8.70252e-05
8.93909e-05
9.17633e-05
9.3967e-05
9.58369e-05
9.77111e-05
9.94593e-05
0.000101057
0.000102503
0.000103696
0.000104708
0.000105624
0.000106419
0.000107142
0.000107813
0.000108452
0.000108871
0.000109362
0.000110177
0.000111031
0.000111743
0.000112581
0.00011332
0.00011412
0.00011501
0.000115865
0.000116704
0.000117578
0.000118364
0.000118964
0.000119263
0.000119345
0.000119184
0.000118878
0.000118813
0.000118599
0.000118317
0.000117835
0.000117216
0.000116194
0.000114695
0.0001129
0.000111213
0.00010953
0.000107987
0.000106494
0.000104373
0.000102439
0.000100722
9.89206e-05
9.68641e-05
9.45293e-05
9.21234e-05
8.9705e-05
8.72441e-05
8.46571e-05
8.20638e-05
7.94111e-05
7.69431e-05
7.44797e-05
7.21287e-05
6.99479e-05
6.76298e-05
6.54066e-05
6.33192e-05
6.11691e-05
5.91899e-05
5.73715e-05
5.57565e-05
5.41877e-05
5.28224e-05
5.1594e-05
5.0656e-05
4.94438e-05
4.99186e-05
4.86533e-05
4.82234e-05
4.79815e-05
4.78512e-05
4.78782e-05
4.80357e-05
4.85902e-05
4.92552e-05
5.03469e-05
5.15967e-05
5.29054e-05
5.45969e-05
5.64715e-05
5.86752e-05
6.10818e-05
6.3638e-05
6.62769e-05
6.91594e-05
7.21476e-05
7.50323e-05
7.78777e-05
8.06725e-05
8.34428e-05
8.6096e-05
8.8795e-05
9.14253e-05
9.42241e-05
9.67431e-05
9.89955e-05
0.000101265
0.000103332
0.000105235
0.000106962
0.000108533
0.000109811
0.000111004
0.000111946
0.000112904
0.000114065
0.000115183
0.000116336
0.000117526
0.000118739
0.000119818
0.000120923
0.0001221
0.000123461
0.000124928
0.000126227
0.000127496
0.000128556
0.000129472
0.000130016
0.000130644
0.000131195
0.000131276
0.00013096
0.000130442
0.000129823
0.000129031
0.000128361
0.00012753
0.000126517
0.000125315
0.000123687
0.000121551
0.000119407
0.000117289
0.000115212
0.000113343
0.000111284
0.000108775
0.000106486
0.000104446
0.000102205
9.94531e-05
9.68652e-05
9.40408e-05
9.11225e-05
8.82808e-05
8.55496e-05
8.27739e-05
7.98732e-05
7.71543e-05
7.4646e-05
7.21705e-05
6.96794e-05
6.73182e-05
6.50154e-05
6.2726e-05
6.06248e-05
5.86114e-05
5.69047e-05
5.52984e-05
5.38714e-05
5.24634e-05
5.13988e-05
5.00534e-05
4.96964e-05
4.82526e-05
4.76717e-05
4.72076e-05
4.68641e-05
4.68172e-05
4.67866e-05
4.71504e-05
4.77174e-05
4.84386e-05
4.95515e-05
5.08523e-05
5.25348e-05
5.45975e-05
5.67931e-05
5.92659e-05
6.19603e-05
6.475e-05
6.78521e-05
7.11327e-05
7.43057e-05
7.73545e-05
8.04474e-05
8.34806e-05
8.64423e-05
8.95953e-05
9.27279e-05
9.57422e-05
9.86753e-05
0.00010145
0.000104283
0.000106804
0.00010927
0.000111441
0.000113476
0.000115377
0.000116963
0.000118374
0.000119807
0.00012134
0.000123096
0.000125011
0.000126899
0.000128499
0.000129976
0.000131514
0.000133269
0.000135368
0.000137314
0.000138872
0.000140224
0.000141346
0.000141927
0.00014209
0.000142371
0.000142764
0.00014301
0.000142821
0.000142214
0.000141137
0.000139945
0.000138691
0.000137211
0.000135455
0.000133644
0.000132033
0.000130144
0.00012761
0.000124789
0.000121867
0.00011935
0.000117196
0.000114578