/*--------------------------------*- C++ -*----------------------------------*\
| =========                 |                                                 |
| \\      /  F ield         | OpenFOAM: The Open Source CFD Toolbox           |
|  \\    /   O peration     | Version:  2.1.1                                 |
|   \\  /    A nd           | Web:      www.OpenFOAM.org                      |
|    \\/     M anipulation  |                                                 |
\*---------------------------------------------------------------------------*/
FoamFile
{
    version     2.0;
    format      ascii;
    class       volSymmTensorField;
    location    "0";
    object      Tau;
}
// * * * * * * * * * * * * * * * * * * * * * * * * * * * * * * * * * * * * * //

dimensions      [0 2 -2 0 0 0 0];

internalField   nonuniform List<symmTensor> 
14751
(
(5.8161e-09 4.49832e-11 4.49354e-35 5.81604e-09 -2.75873e-38 5.81607e-09)
(1.10284e-07 3.01756e-09 -7.9044e-32 1.10277e-07 -5.11415e-32 1.10281e-07)
(4.46032e-07 2.24178e-08 2.23102e-29 4.45955e-07 -2.71409e-32 4.45996e-07)
(1.17313e-06 1.02236e-07 5.16222e-30 1.17275e-06 4.98588e-30 1.17295e-06)
(2.36288e-06 3.53695e-07 -1.43748e-27 2.36177e-06 -8.69719e-30 2.36236e-06)
(3.70874e-06 7.93153e-07 4.42708e-27 3.70764e-06 -3.68612e-29 3.70831e-06)
(4.76471e-06 1.21442e-06 -1.37908e-28 4.76699e-06 5.42151e-29 4.76606e-06)
(5.43412e-06 1.52631e-06 3.95734e-28 5.44489e-06 -1.32204e-30 5.4398e-06)
(5.81987e-06 1.75108e-06 1.48335e-28 5.84552e-06 -6.55e-29 5.83308e-06)
(6.03475e-06 1.91784e-06 3.7339e-26 6.08297e-06 -9.36015e-30 6.05936e-06)
(6.15686e-06 2.04367e-06 5.64431e-28 6.23607e-06 1.22789e-28 6.19709e-06)
(6.23253e-06 2.13653e-06 1.45902e-28 6.35081e-06 1.20662e-32 6.29244e-06)
(6.28733e-06 2.20361e-06 1.41851e-28 6.45142e-06 -4.63168e-31 6.37027e-06)
(6.33435e-06 2.25058e-06 2.16153e-28 6.54932e-06 -2.27237e-31 6.44284e-06)
(6.38001e-06 2.28292e-06 -3.86347e-27 6.64944e-06 1.40966e-29 6.51585e-06)
(6.42746e-06 2.30397e-06 4.01276e-27 6.75382e-06 -1.49483e-29 6.59189e-06)
(6.47821e-06 2.31501e-06 -7.65322e-27 6.86333e-06 3.618e-29 6.67213e-06)
(6.53288e-06 2.318e-06 -1.91436e-27 6.97843e-06 -3.72665e-30 6.75713e-06)
(6.59182e-06 2.31251e-06 1.80162e-26 7.09943e-06 -8.46628e-29 6.8472e-06)
(6.65507e-06 2.29887e-06 -7.30467e-27 7.22658e-06 4.70225e-28 6.94253e-06)
(6.72276e-06 2.27791e-06 -5.97322e-25 7.36029e-06 -1.62452e-27 7.0434e-06)
(6.79492e-06 2.24858e-06 -6.52671e-25 7.50084e-06 -3.53053e-27 7.14993e-06)
(6.87182e-06 2.21157e-06 7.10341e-25 7.64862e-06 2.47846e-27 7.2624e-06)
(6.95337e-06 2.16724e-06 -1.39453e-26 7.80384e-06 6.42174e-28 7.38087e-06)
(7.03953e-06 2.11439e-06 4.3678e-26 7.9668e-06 -1.9782e-28 7.50553e-06)
(7.13031e-06 2.05496e-06 -3.14986e-26 8.13798e-06 -1.10769e-27 7.63673e-06)
(7.22612e-06 1.98842e-06 1.88917e-24 8.31746e-06 9.80569e-27 7.77447e-06)
(7.32689e-06 1.91549e-06 2.00237e-24 8.50548e-06 1.41303e-26 7.91893e-06)
(7.43322e-06 1.83666e-06 -2.45582e-34 8.7024e-06 1.54673e-27 8.07047e-06)
(7.54449e-06 1.75073e-06 -4.39928e-26 8.90818e-06 -1.4316e-27 8.22907e-06)
(7.66133e-06 1.65848e-06 2.44764e-24 9.12319e-06 1.93243e-26 8.39513e-06)
(7.78464e-06 1.56163e-06 -2.51606e-24 9.34736e-06 -1.79437e-26 8.56873e-06)
(7.914e-06 1.46085e-06 1.48365e-28 9.58095e-06 -1.96723e-27 8.7502e-06)
(8.0502e-06 1.35531e-06 6.28118e-26 9.82412e-06 -4.55722e-27 8.93987e-06)
(8.19403e-06 1.24375e-06 5.51405e-24 1.00768e-05 5.83485e-26 9.13793e-06)
(8.34551e-06 1.1275e-06 -5.70636e-24 1.03394e-05 -4.91285e-26 9.3448e-06)
(8.50505e-06 1.00793e-06 -6.05039e-24 1.06119e-05 -6.81473e-26 9.5608e-06)
(8.67431e-06 8.86395e-07 -2.82151e-34 1.08945e-05 2.23945e-28 9.78633e-06)
(8.85272e-06 7.59731e-07 -6.33644e-24 1.11876e-05 -7.42174e-26 1.00219e-05)
(9.04139e-06 6.28778e-07 2.03685e-25 1.14913e-05 -1.32859e-26 1.02678e-05)
(9.24102e-06 4.97941e-07 6.44818e-24 1.1806e-05 8.00084e-26 1.05247e-05)
(9.45358e-06 3.63396e-07 6.79438e-24 1.21319e-05 9.11551e-26 1.0793e-05)
(9.67684e-06 2.24282e-07 6.92927e-24 1.24696e-05 9.73437e-26 1.10733e-05)
(9.91448e-06 8.30223e-08 6.77875e-24 1.28194e-05 1.04833e-25 1.13661e-05)
(1.01656e-05 -5.95817e-08 7.48769e-24 1.31819e-05 1.17151e-25 1.16719e-05)
(1.04307e-05 -2.04623e-07 -1.49564e-33 1.35575e-05 8.61407e-27 1.19915e-05)
(1.07104e-05 -3.51548e-07 -0 1.39469e-05 -0 1.23253e-05)
(1.10061e-05 -4.99863e-07 -1.14771e-37 1.43507e-05 -4.61086e-30 1.26739e-05)
(1.13177e-05 -6.49145e-07 1.03046e-27 1.47696e-05 7.7616e-29 1.30379e-05)
(1.16464e-05 -7.99049e-07 -3.61232e-27 1.5204e-05 -6.91078e-29 1.34179e-05)
(1.19918e-05 -9.51181e-07 4.90367e-25 1.56548e-05 -2.23427e-27 1.38145e-05)
(1.23543e-05 -1.10165e-06 1.41517e-26 1.61225e-05 -4.93298e-28 1.4228e-05)
(1.27342e-05 -1.25207e-06 4.59811e-26 1.66079e-05 1.77496e-28 1.4659e-05)
(1.31305e-05 -1.4025e-06 -5.96375e-25 1.71113e-05 2.75974e-27 1.51078e-05)
(1.3547e-05 -1.547e-06 -5.57849e-27 1.76334e-05 -0 1.55748e-05)
(1.39804e-05 -1.69135e-06 1.37861e-24 1.81748e-05 -6.26832e-27 1.60603e-05)
(1.4433e-05 -1.83372e-06 -1.47581e-24 1.87355e-05 -2.98404e-26 1.65643e-05)
(1.49023e-05 -1.97007e-06 1.65289e-23 1.9316e-05 4.57896e-25 1.70871e-05)
(1.53881e-05 -2.10037e-06 -1.49268e-23 1.99163e-05 -4.49263e-25 1.76285e-05)
(1.58927e-05 -2.22253e-06 1.50589e-23 2.05364e-05 4.26896e-25 1.81884e-05)
(1.64158e-05 -2.33643e-06 3.10699e-26 2.1176e-05 4.10075e-26 1.87665e-05)
(1.6953e-05 -2.44185e-06 1.55445e-27 2.18347e-05 -4.73617e-26 1.93625e-05)
(1.75077e-05 -2.5344e-06 1.72842e-23 2.25118e-05 5.71501e-25 1.99759e-05)
(1.80793e-05 -2.6136e-06 -1.74516e-23 2.32068e-05 -4.95558e-25 2.06061e-05)
(1.86657e-05 -2.68119e-06 -1.81029e-27 2.39183e-05 -5.16569e-26 2.12521e-05)
(1.92674e-05 -2.73e-06 2.62921e-24 2.46449e-05 -1.2131e-26 2.19133e-05)
(1.98837e-05 -2.75924e-06 -2.61523e-24 2.53846e-05 1.20003e-26 2.25885e-05)
(2.05135e-05 -2.77241e-06 -0 2.61359e-05 -0 2.32767e-05)
(2.11588e-05 -2.7642e-06 -3.12714e-24 2.6897e-05 1.44713e-26 2.39767e-05)
(2.18171e-05 -2.7334e-06 3.05047e-24 2.76648e-05 -8.96767e-26 2.46871e-05)
(2.2489e-05 -2.67886e-06 2.24655e-23 2.84373e-05 7.17342e-25 2.54066e-05)
(2.31747e-05 -2.59921e-06 -7.07315e-24 2.92107e-05 1.1228e-25 2.61337e-05)
(2.38734e-05 -2.49557e-06 -2.53424e-25 2.99823e-05 8.69631e-26 2.68667e-05)
(2.45869e-05 -2.3668e-06 -1.60594e-23 3.07495e-05 -8.49252e-25 2.76042e-05)
(2.53142e-05 -2.21163e-06 -4.13046e-24 3.15079e-05 -6.66418e-26 2.83445e-05)
(2.6054e-05 -2.02892e-06 8.6055e-24 3.22541e-05 6.31841e-26 2.90858e-05)
(2.68084e-05 -1.82006e-06 -2.97584e-23 3.29843e-05 -8.9221e-25 2.98265e-05)
(2.75779e-05 -1.58689e-06 4.58278e-24 3.36957e-05 -1.2584e-25 3.05649e-05)
(2.83609e-05 -1.33149e-06 -0 3.43841e-05 -0 3.12991e-05)
(2.91577e-05 -1.05064e-06 7.57902e-26 3.5046e-05 1.2499e-25 3.20274e-05)
(2.99701e-05 -7.43823e-07 -2.18734e-23 3.56785e-05 -1.2022e-24 3.27481e-05)
(3.07964e-05 -4.22615e-07 2.20714e-23 3.62782e-05 9.76631e-25 3.34595e-05)
(3.16364e-05 -8.14158e-08 1.15474e-25 3.68415e-05 -1.15947e-26 3.41597e-05)
(3.24881e-05 2.76159e-07 3.46784e-23 3.73657e-05 1.11366e-24 3.48471e-05)
(3.33526e-05 6.43332e-07 4.26828e-25 3.78492e-05 3.06019e-25 3.55199e-05)
(3.42291e-05 1.02496e-06 -2.29789e-23 3.82893e-05 -1.23179e-24 3.61766e-05)
(3.51134e-05 1.41052e-06 -2.53467e-23 3.86843e-05 -2.18214e-25 3.68155e-05)
(3.60058e-05 1.798e-06 5.01713e-23 3.90329e-05 1.15652e-24 3.7435e-05)
(3.69033e-05 2.1889e-06 -1.31668e-23 3.93348e-05 3.33181e-25 3.80335e-05)
(3.78061e-05 2.57772e-06 1.68605e-24 3.95889e-05 -7.21704e-25 3.86097e-05)
(3.87071e-05 2.9557e-06 -1.38681e-23 3.97944e-05 7.1998e-26 3.91618e-05)
(3.96076e-05 3.32358e-06 2.00791e-24 3.99534e-05 -7.37225e-25 3.96887e-05)
(4.0499e-05 3.67522e-06 -1.42435e-23 4.0065e-05 -4.01275e-26 4.01889e-05)
(4.13821e-05 4.00826e-06 9.68688e-26 4.01317e-05 6.33333e-27 4.06611e-05)
(4.22497e-05 4.31955e-06 3.3005e-26 4.01546e-05 1.52964e-27 4.11042e-05)
(4.30992e-05 4.60331e-06 -1.0194e-25 4.01353e-05 -1.35532e-25 4.15169e-05)
(4.39221e-05 4.85655e-06 1.31621e-23 4.00777e-05 6.72519e-25 4.18984e-05)
(4.4719e-05 5.07709e-06 4.3054e-26 3.99838e-05 -3.72948e-27 4.22475e-05)
(4.5483e-05 5.2659e-06 1.32085e-23 3.98559e-05 6.52581e-25 4.25633e-05)
(4.62089e-05 5.41365e-06 -1.59422e-23 3.9698e-05 2.85224e-25 4.28451e-05)
(4.68919e-05 5.51867e-06 8.75423e-24 3.95142e-05 -4.00186e-25 4.30923e-05)
(4.75247e-05 5.58286e-06 1.62898e-23 3.93061e-05 -1.33648e-25 4.33041e-05)
(4.81072e-05 5.6013e-06 2.21183e-25 3.90788e-05 -1.22915e-26 4.34801e-05)
(4.86305e-05 5.57692e-06 -1.57206e-23 3.88356e-05 1.54203e-25 4.36199e-05)
(4.90927e-05 5.50541e-06 -6.69496e-24 3.858e-05 -2.75401e-25 4.37234e-05)
(4.94911e-05 5.39075e-06 1.40727e-26 3.83159e-05 -1.71426e-25 4.37903e-05)
(4.98221e-05 5.23293e-06 6.6714e-24 3.80454e-05 2.51089e-25 4.38205e-05)
(5.00821e-05 5.02582e-06 1.58661e-23 3.77706e-05 1.36702e-26 4.38143e-05)
(5.02687e-05 4.78166e-06 -1.53984e-23 3.74957e-05 7.05494e-26 4.37719e-05)
(5.03815e-05 4.49465e-06 1.55835e-23 3.72225e-05 -2.15591e-26 4.36933e-05)
(5.04195e-05 4.17105e-06 -1.83543e-23 3.69508e-05 -7.78434e-26 4.35793e-05)
(5.03835e-05 3.81297e-06 3.13761e-24 3.66839e-05 3.76244e-26 4.34302e-05)
(5.02724e-05 3.42389e-06 -6.7542e-27 3.6422e-05 4.56572e-26 4.32466e-05)
(5.00887e-05 3.00289e-06 -1.46629e-23 3.61652e-05 1.26934e-25 4.30292e-05)
(4.98333e-05 2.55803e-06 -3.39644e-24 3.59127e-05 -6.42989e-26 4.27787e-05)
(4.95093e-05 2.09245e-06 2.82402e-23 3.56642e-05 -1.24579e-25 4.2496e-05)
(4.91175e-05 1.60405e-06 -3.07349e-23 3.54196e-05 7.57401e-26 4.21819e-05)
(4.86637e-05 1.10053e-06 2.71219e-23 3.51768e-05 -1.19452e-25 4.18372e-05)
(4.81491e-05 5.87081e-07 -2.94419e-23 3.49347e-05 8.50306e-26 4.14629e-05)
(4.75784e-05 6.8315e-08 1.28484e-23 3.46915e-05 -1.13704e-25 4.10597e-05)
(4.69553e-05 -4.63277e-07 -2.1988e-26 3.44453e-05 -1.25866e-27 4.06287e-05)
(4.6283e-05 -9.91789e-07 1.24203e-23 3.41941e-05 -5.60533e-26 4.01707e-05)
(4.55651e-05 -1.52129e-06 -1.19204e-23 3.39357e-05 8.60725e-26 3.96864e-05)
(4.48058e-05 -2.05037e-06 -1.25714e-24 3.3668e-05 2.91822e-26 3.91767e-05)
(4.40087e-05 -2.57223e-06 -1.2239e-24 3.33889e-05 -3.21466e-26 3.86421e-05)
(4.31765e-05 -3.08716e-06 7.43915e-26 3.30964e-05 -2.56263e-26 3.80833e-05)
(4.23124e-05 -3.59196e-06 -1.07381e-23 3.27885e-05 4.68605e-26 3.75007e-05)
(4.1419e-05 -4.08936e-06 1.01991e-23 3.24635e-05 -4.67065e-26 3.68947e-05)
(4.04977e-05 -4.57705e-06 9.95341e-24 3.21196e-05 -4.43655e-26 3.62652e-05)
(3.955e-05 -5.04997e-06 -9.50432e-24 3.17553e-05 5.18992e-26 3.56121e-05)
(3.85768e-05 -5.50926e-06 -2.22355e-25 3.13689e-05 -1.18931e-26 3.49351e-05)
(3.75769e-05 -5.95422e-06 -8.66455e-24 3.09587e-05 3.84076e-26 3.42329e-05)
(3.65505e-05 -6.38546e-06 8.44059e-24 3.05228e-05 -3.44649e-26 3.35042e-05)
(3.54949e-05 -6.79644e-06 9.58774e-28 3.00585e-05 1.85666e-26 3.27466e-05)
(3.44065e-05 -7.18547e-06 3.57036e-24 2.95623e-05 -1.49542e-26 3.19566e-05)
(3.32799e-05 -7.55134e-06 -7.36886e-24 2.9029e-05 2.25737e-26 3.11289e-05)
(3.21071e-05 -7.8831e-06 3.537e-24 2.84507e-05 -1.68366e-26 3.02552e-05)
(3.08751e-05 -8.1711e-06 -5.19077e-26 2.78144e-05 7.11693e-30 2.93229e-05)
(2.95641e-05 -8.39331e-06 -3.08892e-24 2.70983e-05 1.68679e-26 2.83111e-05)
(2.81426e-05 -8.51045e-06 2.80746e-24 2.62643e-05 -1.32196e-26 2.7185e-05)
(2.65587e-05 -8.45341e-06 2.61156e-24 2.5246e-05 -9.22898e-27 2.58857e-05)
(2.47178e-05 -8.10404e-06 -2.2894e-24 2.39216e-05 4.52942e-27 2.43054e-05)
(2.24494e-05 -7.32033e-06 -2.55198e-27 2.20791e-05 4.85799e-28 2.22533e-05)
(1.94652e-05 -6.00077e-06 -8.84046e-28 1.93864e-05 9.27807e-28 1.94186e-05)
(1.53769e-05 -4.11437e-06 1.08305e-24 1.54328e-05 -2.55729e-30 1.54005e-05)
(1.00353e-05 -1.82104e-06 -4.82385e-25 1.00891e-05 -9.63633e-28 1.00602e-05)
(4.70345e-06 -3.58143e-07 1.72875e-28 4.71616e-06 3.32474e-28 4.70941e-06)
(1.34527e-06 -3.54661e-08 -1.32169e-30 1.34639e-06 6.43137e-29 1.3458e-06)
(7.96395e-08 -4.40862e-10 2.75335e-32 7.96472e-08 -9.00916e-31 7.96427e-08)
(5.63116e-09 4.29908e-11 -5.38716e-34 5.63112e-09 1.05132e-34 5.63114e-09)
(1.06854e-07 2.89222e-09 1.00536e-34 1.06846e-07 1.33088e-30 1.0685e-07)
(4.33307e-07 2.15268e-08 -3.92659e-28 4.33221e-07 -1.04436e-29 4.33263e-07)
(1.14461e-06 9.84039e-08 1.96292e-27 1.14416e-06 -7.40284e-29 1.14438e-06)
(2.32108e-06 3.43605e-07 4.17025e-27 2.31953e-06 8.52037e-28 2.32028e-06)
(3.67158e-06 7.8196e-07 -1.54564e-25 3.66897e-06 4.27651e-28 3.67022e-06)
(4.74202e-06 1.20827e-06 -3.09851e-26 4.74093e-06 -6.05e-27 4.74137e-06)
(5.4212e-06 1.52332e-06 5.38842e-25 5.42612e-06 -8.94265e-28 5.42349e-06)
(5.81165e-06 1.74918e-06 5.12273e-26 5.82842e-06 1.38831e-26 5.8198e-06)
(6.02838e-06 1.9161e-06 -2.39021e-24 6.06413e-06 -7.66009e-27 6.04596e-06)
(6.1514e-06 2.0415e-06 3.27164e-24 6.21415e-06 -1.63876e-26 6.18242e-06)
(6.22831e-06 2.13426e-06 -8.75504e-27 6.32594e-06 1.61545e-26 6.27672e-06)
(6.28508e-06 2.20084e-06 3.73932e-25 6.42431e-06 -9.93256e-29 6.35423e-06)
(6.33496e-06 2.24724e-06 -1.09511e-26 6.52081e-06 3.19394e-26 6.42735e-06)
(6.3843e-06 2.27856e-06 -1.78203e-23 6.62031e-06 -5.21267e-26 6.5017e-06)
(6.43621e-06 2.29825e-06 2.09151e-23 6.72465e-06 4.94716e-26 6.57972e-06)
(6.49193e-06 2.3085e-06 -4.91184e-23 6.83451e-06 -4.36934e-26 6.66242e-06)
(6.55211e-06 2.31056e-06 -4.88816e-25 6.95022e-06 -2.68652e-25 6.75027e-06)
(6.61688e-06 2.30441e-06 1.25877e-22 7.07191e-06 3.753e-25 6.8434e-06)
(6.68627e-06 2.29049e-06 -6.88291e-23 7.19972e-06 2.51827e-26 6.94193e-06)
(6.76053e-06 2.26914e-06 -1.78411e-24 7.33405e-06 -1.07934e-25 7.04613e-06)
(6.83969e-06 2.23946e-06 3.35766e-24 7.4751e-06 6.77973e-27 7.15607e-06)
(6.92337e-06 2.2024e-06 -7.62046e-25 7.62303e-06 1.0314e-25 7.2718e-06)
(7.01191e-06 2.15783e-06 -1.00144e-22 7.77823e-06 -7.51584e-25 7.3936e-06)
(7.10545e-06 2.10635e-06 3.19399e-22 7.94097e-06 1.59561e-24 7.5216e-06)
(7.20378e-06 2.04746e-06 -2.33522e-22 8.11141e-06 -7.58042e-25 7.65587e-06)
(7.30715e-06 1.98163e-06 -1.97711e-24 8.28992e-06 -2.59865e-25 7.79673e-06)
(7.41558e-06 1.90862e-06 -6.0643e-24 8.4766e-06 -3.67436e-26 7.94427e-06)
(7.52953e-06 1.82972e-06 3.15876e-27 8.67164e-06 2.59163e-25 8.09867e-06)
(7.64897e-06 1.74626e-06 -2.87363e-22 8.8753e-06 -2.53335e-24 8.2602e-06)
(7.77437e-06 1.65572e-06 6.10766e-22 9.08772e-06 4.30695e-24 8.42907e-06)
(7.90558e-06 1.55973e-06 -3.18517e-22 9.30895e-06 -1.69228e-24 8.60547e-06)
(8.04377e-06 1.45886e-06 -9.8667e-27 9.5392e-06 -6.57537e-25 8.78973e-06)
(8.18927e-06 1.35336e-06 3.50052e-22 9.77853e-06 3.37517e-24 8.98207e-06)
(8.34261e-06 1.24352e-06 -3.68877e-22 1.00272e-05 -3.20864e-24 9.18287e-06)
(8.50312e-06 1.12933e-06 3.82814e-22 1.02853e-05 3.68045e-24 9.39247e-06)
(8.6729e-06 1.01219e-06 -3.83123e-22 1.0553e-05 -3.26482e-24 9.61127e-06)
(8.85118e-06 8.90453e-07 2.35698e-25 1.08305e-05 -3.98131e-25 9.8396e-06)
(9.04046e-06 7.65227e-07 -6.98102e-24 1.1118e-05 -9.68909e-25 1.0078e-05)
(9.23938e-06 6.3769e-07 8.34043e-22 1.14159e-05 1.07181e-23 1.03269e-05)
(9.44975e-06 5.05698e-07 -8.74013e-22 1.17244e-05 -9.25928e-24 1.05867e-05)
(9.67306e-06 3.71723e-07 -6.94112e-24 1.2044e-05 -1.05923e-24 1.08581e-05)
(9.90838e-06 2.35139e-07 -3.53179e-23 1.23749e-05 7.24696e-25 1.11415e-05)
(1.01562e-05 9.49109e-08 -9.28339e-22 1.27177e-05 -1.42811e-23 1.14376e-05)
(1.0419e-05 -4.47381e-08 9.58434e-22 1.30728e-05 1.21926e-23 1.17469e-05)
(1.06965e-05 -1.86559e-07 8.16999e-25 1.34407e-05 1.26139e-24 1.20699e-05)
(1.09889e-05 -3.31873e-07 -0 1.38219e-05 -0 1.24073e-05)
(1.12961e-05 -4.78424e-07 3.05924e-26 1.42171e-05 -3.41253e-28 1.27596e-05)
(1.16205e-05 -6.25791e-07 -1.27566e-30 1.46268e-05 5.85332e-33 1.31275e-05)
(1.19626e-05 -7.73653e-07 -5.98237e-26 1.50516e-05 -1.72339e-24 1.35113e-05)
(1.23219e-05 -9.21727e-07 1.0103e-21 1.5492e-05 1.87691e-23 1.39117e-05)
(1.26977e-05 -1.06984e-06 -5.22854e-25 1.59486e-05 2.37589e-24 1.43293e-05)
(1.30924e-05 -1.21594e-06 -5.07621e-25 1.64219e-05 2.79595e-24 1.47642e-05)
(1.35053e-05 -1.36184e-06 -1.07723e-21 1.69123e-05 -2.14677e-23 1.52169e-05)
(1.39365e-05 -1.50566e-06 1.21527e-24 1.74203e-05 -6.53825e-24 1.56879e-05)
(1.43874e-05 -1.64728e-06 2.08597e-21 1.7946e-05 5.14535e-23 1.61771e-05)
(1.48569e-05 -1.78485e-06 -2.17655e-21 1.84897e-05 -4.41375e-23 1.66847e-05)
(1.5344e-05 -1.91425e-06 -1.90608e-23 1.90513e-05 -1.05524e-23 1.72109e-05)
(1.58505e-05 -2.04155e-06 2.1962e-21 1.96308e-05 5.99394e-23 1.77554e-05)
(1.63765e-05 -2.16275e-06 -2.22309e-21 2.02278e-05 -4.98367e-23 1.83181e-05)
(1.69196e-05 -2.27148e-06 3.0159e-23 2.08417e-05 -4.66614e-24 1.88985e-05)
(1.7483e-05 -2.37173e-06 -2.10722e-25 2.14719e-05 1.47561e-25 1.94964e-05)
(1.80619e-05 -2.46332e-06 -1.31234e-23 2.21174e-05 -6.35457e-25 2.0111e-05)
(1.86619e-05 -2.54177e-06 1.79194e-23 2.2777e-05 5.08579e-25 2.07417e-05)
(1.92782e-05 -2.60435e-06 -4.64242e-25 2.34492e-05 -7.75815e-24 2.13875e-05)
(1.99097e-05 -2.65276e-06 2.34301e-21 2.41323e-05 8.04371e-23 2.20477e-05)
(2.05618e-05 -2.68419e-06 -2.33601e-21 2.48243e-05 -6.48477e-23 2.27209e-05)
(2.12307e-05 -2.69796e-06 -1.22371e-23 2.55229e-05 1.381e-24 2.34061e-05)
(2.1915e-05 -2.69553e-06 -2.41708e-21 2.62257e-05 -9.14207e-23 2.4102e-05)
(2.26176e-05 -2.67149e-06 2.42434e-21 2.693e-05 6.29478e-23 2.48071e-05)
(2.33375e-05 -2.62483e-06 2.47591e-21 2.76326e-05 1.18562e-22 2.55199e-05)
(2.40745e-05 -2.55934e-06 -5.06305e-21 2.833e-05 -1.7202e-22 2.62389e-05)
(2.48297e-05 -2.47189e-06 -2.3639e-23 2.90196e-05 -3.61871e-23 2.69625e-05)
(2.56014e-05 -2.36388e-06 2.58838e-21 2.96978e-05 1.09149e-22 2.76889e-05)
(2.63903e-05 -2.23459e-06 -2.64199e-21 3.03606e-05 -1.17559e-22 2.84166e-05)
(2.71988e-05 -2.08077e-06 5.34139e-21 3.1005e-05 2.26857e-22 2.91437e-05)
(2.80226e-05 -1.90954e-06 -5.4348e-21 3.1627e-05 -2.0786e-22 2.98685e-05)
(2.88658e-05 -1.71793e-06 2.74302e-21 3.2223e-05 8.48478e-23 3.05891e-05)
(2.9726e-05 -1.51102e-06 1.10544e-23 3.27907e-05 1.3938e-23 3.13038e-05)
(3.0603e-05 -1.28893e-06 4.40269e-23 3.33257e-05 1.53421e-24 3.20108e-05)
(3.14971e-05 -1.0491e-06 2.24516e-23 3.3825e-05 1.75343e-24 3.27083e-05)
(3.2407e-05 -7.97428e-07 -6.80778e-23 3.42868e-05 -3.01481e-24 3.33945e-05)
(3.33298e-05 -5.37436e-07 4.20847e-23 3.47076e-05 -3.77118e-23 3.40678e-05)
(3.42679e-05 -2.70073e-07 5.90207e-21 3.50866e-05 2.6392e-22 3.47263e-05)
(3.52152e-05 3.56054e-09 -5.47411e-23 3.54217e-05 3.60832e-23 3.53684e-05)
(3.61705e-05 2.76251e-07 9.56811e-24 3.57104e-05 9.02262e-23 3.59924e-05)
(3.71347e-05 5.49612e-07 -1.22809e-20 3.59543e-05 -6.45094e-22 3.65967e-05)
(3.81001e-05 8.18904e-07 1.2422e-20 3.61522e-05 5.19637e-22 3.71797e-05)
(3.90648e-05 1.07627e-06 -6.28159e-21 3.63038e-05 -2.43144e-22 3.774e-05)
(4.00266e-05 1.32941e-06 6.33526e-21 3.64107e-05 2.87716e-22 3.82759e-05)
(4.09817e-05 1.57002e-06 -6.46625e-21 3.64743e-05 -2.92192e-22 3.87862e-05)
(4.19216e-05 1.79341e-06 6.45822e-21 3.64962e-05 2.85008e-22 3.92693e-05)
(4.2845e-05 1.9976e-06 -6.45555e-21 3.64786e-05 -2.272e-22 3.97242e-05)
(4.37449e-05 2.18436e-06 -5.74105e-24 3.64247e-05 -5.59125e-23 4.01494e-05)
(4.46169e-05 2.35207e-06 -4.0157e-24 3.6337e-05 1.10613e-24 4.05439e-05)
(4.54559e-05 2.49634e-06 -7.19016e-26 3.62204e-05 3.67129e-25 4.09065e-05)
(4.62545e-05 2.61582e-06 1.79481e-23 3.60773e-05 -7.01617e-25 4.12363e-05)
(4.70049e-05 2.70643e-06 -5.61705e-23 3.59115e-05 -3.84864e-25 4.15325e-05)
(4.77067e-05 2.77428e-06 -3.47551e-23 3.57285e-05 7.48791e-23 4.17941e-05)
(4.83523e-05 2.81888e-06 -6.6191e-21 3.55315e-05 -3.03478e-22 4.20205e-05)
(4.89376e-05 2.84024e-06 6.68284e-21 3.53245e-05 7.40318e-23 4.22111e-05)
(4.94553e-05 2.83504e-06 6.69961e-21 3.51113e-05 2.7473e-22 4.23654e-05)
(4.99033e-05 2.80715e-06 -2.40227e-24 3.48958e-05 1.48773e-22 4.24831e-05)
(5.02791e-05 2.76059e-06 -6.70663e-21 3.4681e-05 -1.87589e-22 4.25641e-05)
(5.05762e-05 2.68919e-06 -4.31678e-24 3.44699e-05 -8.1171e-23 4.2608e-05)
(5.07935e-05 2.59765e-06 2.31655e-26 3.42648e-05 1.72212e-25 4.26149e-05)
(5.09327e-05 2.49031e-06 -1.96281e-23 3.40679e-05 -9.72644e-23 4.25851e-05)
(5.09896e-05 2.36858e-06 6.56986e-21 3.38804e-05 2.09275e-22 4.25188e-05)
(5.0963e-05 2.23003e-06 -6.53209e-21 3.37033e-05 -1.20896e-22 4.24163e-05)
(5.08576e-05 2.07995e-06 6.44961e-21 3.35373e-05 8.80342e-23 4.22781e-05)
(5.06696e-05 1.91584e-06 -6.39056e-21 3.33823e-05 1.94373e-23 4.21049e-05)
(5.04034e-05 1.73625e-06 -1.62208e-23 3.32377e-05 -9.7478e-23 4.18973e-05)
(5.00613e-05 1.5492e-06 1.49639e-23 3.31026e-05 1.12261e-22 4.16563e-05)
(4.96475e-05 1.35286e-06 -6.16297e-21 3.29759e-05 -1.07345e-23 4.13825e-05)
(4.91623e-05 1.14553e-06 3.67881e-23 3.28561e-05 -3.22317e-22 4.10769e-05)
(4.86123e-05 9.28835e-07 1.1917e-20 3.27413e-05 2.1478e-22 4.07405e-05)
(4.79992e-05 7.01313e-07 -1.1681e-20 3.26295e-05 2.43136e-23 4.03745e-05)
(4.73276e-05 4.61833e-07 1.14113e-20 3.25184e-05 -5.0612e-23 3.99797e-05)
(4.66018e-05 2.12429e-07 -1.11288e-20 3.24058e-05 2.01331e-22 3.95573e-05)
(4.58275e-05 -5.0591e-08 5.41305e-21 3.22894e-05 -2.83142e-22 3.91084e-05)
(4.50081e-05 -3.21379e-07 -1.75284e-24 3.21665e-05 -1.62289e-23 3.86339e-05)
(4.41491e-05 -6.00374e-07 5.1521e-21 3.20348e-05 4.20563e-23 3.81347e-05)
(4.32532e-05 -8.95357e-07 -5.00031e-21 3.18921e-05 2.04299e-22 3.76121e-05)
(4.23248e-05 -1.20199e-06 2.78441e-23 3.17357e-05 -1.17706e-22 3.70666e-05)
(4.13685e-05 -1.51834e-06 -4.04117e-23 3.15635e-05 -5.16653e-25 3.64991e-05)
(4.03861e-05 -1.84923e-06 5.57421e-23 3.13732e-05 1.40673e-22 3.59103e-05)
(3.93823e-05 -2.19256e-06 -4.23828e-21 3.11627e-05 -2.37413e-23 3.53006e-05)
(3.83606e-05 -2.54039e-06 3.99275e-21 3.09295e-05 -3.7874e-22 3.46703e-05)
(3.73216e-05 -2.89994e-06 3.82968e-21 3.0672e-05 1.48018e-22 3.40197e-05)
(3.62671e-05 -3.26975e-06 -3.59274e-21 3.03874e-05 2.36709e-22 3.33483e-05)
(3.52003e-05 -3.63995e-06 3.70327e-24 3.00735e-05 2.54107e-23 3.26556e-05)
(3.41201e-05 -4.01521e-06 -3.1125e-21 2.97274e-05 -3.67457e-23 3.19406e-05)
(3.30266e-05 -4.39143e-06 2.86908e-21 2.93458e-05 -2.28614e-22 3.12014e-05)
(3.19192e-05 -4.75985e-06 4.36838e-24 2.89243e-05 4.56046e-23 3.04354e-05)
(3.07956e-05 -5.11831e-06 1.18791e-21 2.84575e-05 1.08226e-22 2.96385e-05)
(2.9651e-05 -5.46103e-06 -2.10255e-21 2.79377e-05 6.74141e-23 2.8805e-05)
(2.8479e-05 -5.77702e-06 9.15732e-22 2.7354e-05 -1.56559e-22 2.79259e-05)
(2.72697e-05 -6.0513e-06 1.03677e-23 2.66902e-05 1.38969e-22 2.69879e-05)
(2.60057e-05 -6.26895e-06 -6.47373e-22 2.59212e-05 -5.42388e-23 2.597e-05)
(2.466e-05 -6.39823e-06 5.10961e-22 2.50065e-05 -1.58375e-22 2.48383e-05)
(2.31866e-05 -6.38677e-06 3.87191e-22 2.3878e-05 1.1603e-22 2.35361e-05)
(2.15022e-05 -6.15106e-06 -2.68501e-22 2.24198e-05 5.49285e-23 2.19639e-05)
(1.94528e-05 -5.56777e-06 -2.44288e-24 2.04394e-05 -3.70849e-23 1.99488e-05)
(1.67685e-05 -4.52868e-06 -3.47838e-24 1.76453e-05 -5.80191e-23 1.72099e-05)
(1.30979e-05 -3.0192e-06 3.584e-23 1.37063e-05 3.54589e-23 1.34047e-05)
(8.40915e-06 -1.28666e-06 -1.05709e-23 8.67313e-06 8.81359e-24 8.54253e-06)
(3.90461e-06 -2.67142e-07 1.55371e-25 3.96017e-06 -2.04276e-24 3.93271e-06)
(1.11535e-06 -3.05636e-08 5.51503e-30 1.12181e-06 -5.87822e-29 1.11859e-06)
(6.51045e-08 -4.19132e-10 -2.61441e-28 6.51946e-08 3.25658e-29 6.51492e-08)
(5.46706e-09 4.12835e-11 5.3123e-34 5.46701e-09 -1.02066e-34 5.46704e-09)
(1.0379e-07 2.77897e-09 -3.32296e-32 1.03782e-07 -1.68599e-31 1.03786e-07)
(4.22491e-07 2.07512e-08 -3.47486e-30 4.22401e-07 -2.59792e-32 4.22446e-07)
(1.12225e-06 9.53717e-08 4.67625e-29 1.12175e-06 2.3104e-29 1.122e-06)
(2.29274e-06 3.36969e-07 -2.82166e-27 2.29093e-06 7.10622e-30 2.29184e-06)
(3.65273e-06 7.77636e-07 -4.87325e-28 3.64907e-06 2.52099e-28 3.65091e-06)
(4.73395e-06 1.20845e-06 -3.66086e-26 4.73041e-06 -4.27489e-28 4.7322e-06)
(5.41921e-06 1.52584e-06 3.23159e-26 5.41981e-06 -1.14871e-27 5.41953e-06)
(5.81112e-06 1.75175e-06 -5.06684e-26 5.82125e-06 1.59105e-27 5.81623e-06)
(6.02708e-06 1.9177e-06 -7.2836e-26 6.05344e-06 -5.69588e-28 6.04033e-06)
(6.14899e-06 2.04218e-06 1.01097e-26 6.19924e-06 8.24319e-26 6.17421e-06)
(6.22554e-06 2.13409e-06 -1.80239e-23 6.30739e-06 -8.58704e-26 6.26661e-06)
(6.2831e-06 2.19961e-06 2.293e-23 6.40317e-06 -5.01384e-26 6.34333e-06)
(6.33484e-06 2.24445e-06 -2.93542e-23 6.4982e-06 3.51393e-26 6.41676e-06)
(6.38712e-06 2.27409e-06 3.53258e-23 6.59713e-06 -2.69909e-25 6.49237e-06)
(6.44268e-06 2.29205e-06 4.25378e-23 6.70158e-06 4.53094e-25 6.5724e-06)
(6.50271e-06 2.30053e-06 -9.85304e-23 6.81199e-06 1.94317e-25 6.65766e-06)
(6.56768e-06 2.30113e-06 -5.53653e-23 6.92845e-06 -7.21836e-25 6.7484e-06)
(6.6378e-06 2.29397e-06 1.26831e-22 7.05108e-06 3.18126e-25 6.8448e-06)
(6.71284e-06 2.27852e-06 -1.43615e-22 7.17986e-06 -2.64096e-25 6.9468e-06)
(6.79319e-06 2.25524e-06 1.58964e-22 7.315e-06 -3.23222e-25 7.05453e-06)
(6.87841e-06 2.22495e-06 1.69967e-22 7.45661e-06 1.18357e-24 7.168e-06)
(6.96884e-06 2.18776e-06 -1.89826e-22 7.60501e-06 1.62697e-25 7.2874e-06)
(7.06415e-06 2.14214e-06 -2.03421e-22 7.76034e-06 -1.4672e-24 7.4128e-06)
(7.16467e-06 2.08856e-06 2.28212e-22 7.92292e-06 4.10362e-25 7.5444e-06)
(7.2703e-06 2.02922e-06 3.69485e-24 8.09289e-06 8.18045e-25 7.68227e-06)
(7.38139e-06 1.96299e-06 -2.57694e-22 8.27046e-06 -1.56116e-24 7.8266e-06)
(7.49783e-06 1.88974e-06 2.68817e-22 8.4559e-06 8.05624e-25 7.9776e-06)
(7.62014e-06 1.81086e-06 -1.55889e-25 8.64933e-06 4.43207e-25 8.13547e-06)
(7.74807e-06 1.72539e-06 -4.57502e-24 8.85085e-06 -1.37996e-26 8.30033e-06)
(7.88274e-06 1.63409e-06 -9.64068e-24 9.06084e-06 -6.08204e-26 8.4726e-06)
(8.02394e-06 1.53766e-06 2.54601e-25 9.27922e-06 -2.11555e-26 8.65233e-06)
(8.17201e-06 1.43527e-06 -2.03434e-25 9.50626e-06 3.74328e-27 8.83993e-06)
(8.32736e-06 1.32856e-06 -6.46514e-26 9.74216e-06 7.26934e-28 9.03573e-06)
(8.49132e-06 1.21906e-06 5.09186e-25 9.98692e-06 -1.03292e-24 9.23993e-06)
(8.6638e-06 1.10422e-06 7.62366e-22 1.02408e-05 7.29808e-24 9.453e-06)
(8.84539e-06 9.85148e-07 -7.87381e-22 1.05042e-05 -6.48986e-24 9.6754e-06)
(9.03647e-06 8.63266e-07 8.38e-22 1.0777e-05 8.71882e-24 9.9074e-06)
(9.23813e-06 7.36584e-07 -1.65677e-21 1.10597e-05 -1.53647e-23 1.01495e-05)
(9.45114e-06 6.07826e-07 8.69158e-22 1.13525e-05 5.85515e-24 1.04023e-05)
(9.67657e-06 4.74809e-07 2.83576e-23 1.16557e-05 1.50778e-24 1.06662e-05)
(9.9138e-06 3.40044e-07 -6.9702e-25 1.19697e-05 2.02404e-26 1.09417e-05)
(1.01642e-05 2.04575e-07 2.85502e-23 1.2295e-05 3.47413e-25 1.12295e-05)
(1.04287e-05 6.40211e-08 4.3718e-25 1.26318e-05 3.1307e-24 1.15301e-05)
(1.07073e-05 -7.9316e-08 -1.95026e-21 1.29808e-05 -2.74802e-23 1.1844e-05)
(1.10026e-05 -2.22995e-07 1.92089e-21 1.33424e-05 2.08743e-23 1.21719e-05)
(1.13134e-05 -3.66428e-07 1.13647e-24 1.37171e-05 3.02673e-24 1.25143e-05)
(1.16406e-05 -5.12682e-07 6.06584e-23 1.41053e-05 8.07511e-25 1.28718e-05)
(1.19848e-05 -6.63402e-07 6.32987e-27 1.45078e-05 1.17567e-25 1.3245e-05)
(1.2347e-05 -8.12727e-07 2.31685e-25 1.49249e-05 3.96106e-24 1.36344e-05)
(1.27276e-05 -9.60307e-07 -2.03671e-21 1.53571e-05 -3.65319e-23 1.40405e-05)
(1.31268e-05 -1.10787e-06 2.05915e-21 1.58049e-05 2.43551e-23 1.44637e-05)
(1.35445e-05 -1.25723e-06 2.14362e-21 1.62687e-05 4.50976e-23 1.49045e-05)
(1.39827e-05 -1.40458e-06 -2.0712e-21 1.67488e-05 -3.55759e-23 1.53631e-05)
(1.44406e-05 -1.54782e-06 2.11899e-21 1.72454e-05 3.90779e-23 1.58399e-05)
(1.49191e-05 -1.69098e-06 -2.0412e-21 1.77587e-05 -3.80181e-23 1.63349e-05)
(1.54163e-05 -1.82814e-06 2.18515e-21 1.82884e-05 4.3822e-23 1.68483e-05)
(1.59344e-05 -1.96124e-06 -2.17088e-21 1.88346e-05 -3.75924e-23 1.73799e-05)
(1.64728e-05 -2.09247e-06 -6.08452e-24 1.93968e-05 -5.163e-24 1.79297e-05)
(1.70317e-05 -2.21163e-06 -6.20664e-23 1.99744e-05 1.1513e-23 1.84973e-05)
(1.76094e-05 -2.32469e-06 -4.50588e-21 2.05668e-05 -1.004e-22 1.90823e-05)
(1.82087e-05 -2.42965e-06 8.04275e-24 2.11728e-05 -2.95186e-23 1.96841e-05)
(1.88278e-05 -2.52418e-06 4.57096e-21 2.17913e-05 1.04903e-22 2.03022e-05)
(1.94662e-05 -2.60809e-06 6.50223e-24 2.24207e-05 1.38356e-23 2.09356e-05)
(2.01243e-05 -2.67453e-06 -0 2.30592e-05 -0 2.15834e-05)
(2.08026e-05 -2.73183e-06 -1.02953e-23 2.37049e-05 -1.67972e-23 2.22446e-05)
(2.14995e-05 -2.77522e-06 4.65631e-21 2.43555e-05 1.58386e-22 2.2918e-05)
(2.2218e-05 -2.79968e-06 -9.56766e-21 2.50083e-05 -2.76626e-22 2.36022e-05)
(2.29532e-05 -2.80908e-06 9.68091e-21 2.56608e-05 2.49084e-22 2.42959e-05)
(2.37086e-05 -2.80293e-06 -4.90731e-21 2.631e-05 -9.86211e-23 2.49975e-05)
(2.44836e-05 -2.77818e-06 6.49764e-23 2.69526e-05 -1.73953e-23 2.57056e-05)
(2.52782e-05 -2.7367e-06 1.15468e-23 2.75855e-05 -2.29978e-23 2.64185e-05)
(2.6091e-05 -2.67787e-06 5.07238e-21 2.82052e-05 1.52405e-22 2.71343e-05)
(2.6924e-05 -2.60124e-06 2.01161e-23 2.88084e-05 5.16555e-23 2.78515e-05)
(2.77744e-05 -2.51125e-06 -5.2741e-21 2.93915e-05 -1.33288e-22 2.85683e-05)
(2.86455e-05 -2.40279e-06 -5.30543e-21 2.99512e-05 -2.2044e-22 2.92827e-05)
(2.95357e-05 -2.28061e-06 5.44912e-21 3.04842e-05 1.7416e-22 2.99931e-05)
(3.04417e-05 -2.15e-06 -5.44422e-21 3.09873e-05 -1.76906e-22 3.06975e-05)
(3.13655e-05 -2.00864e-06 5.45906e-21 3.14576e-05 1.45731e-22 3.13941e-05)
(3.23065e-05 -1.85679e-06 -5.93679e-23 3.18925e-05 2.85426e-23 3.20811e-05)
(3.32622e-05 -1.69503e-06 -2.15991e-23 3.22896e-05 4.28436e-25 3.27567e-05)
(3.42306e-05 -1.53216e-06 -4.50776e-23 3.26467e-05 -1.00439e-24 3.3419e-05)
(3.52103e-05 -1.36908e-06 7.31477e-23 3.29624e-05 3.89145e-23 3.40663e-05)
(3.62006e-05 -1.20412e-06 -5.83322e-21 3.32354e-05 -2.26379e-22 3.4697e-05)
(3.71984e-05 -1.04095e-06 5.936e-21 3.34649e-05 1.51931e-22 3.53092e-05)
(3.81994e-05 -8.8665e-07 7.40135e-23 3.36506e-05 4.21393e-23 3.59013e-05)
(3.91987e-05 -7.39476e-07 6.99499e-23 3.37928e-05 8.85212e-25 3.64717e-05)
(4.01969e-05 -6.00617e-07 -3.49322e-23 3.3892e-05 -4.77017e-23 3.70188e-05)
(4.11879e-05 -4.74146e-07 6.16002e-21 3.39492e-05 2.25091e-22 3.75411e-05)
(4.21651e-05 -3.6119e-07 -6.21068e-21 3.3966e-05 -1.30915e-22 3.80371e-05)
(4.31286e-05 -2.62625e-07 1.25806e-22 3.39442e-05 -4.63377e-23 3.85055e-05)
(4.40679e-05 -1.79277e-07 -6.33514e-23 3.38859e-05 -1.1063e-22 3.89448e-05)
(4.49833e-05 -1.14843e-07 1.24579e-20 3.37936e-05 2.91654e-22 3.93539e-05)