/*--------------------------------*- C++ -*----------------------------------*\
| =========                 |                                                 |
| \\      /  F ield         | OpenFOAM: The Open Source CFD Toolbox           |
|  \\    /   O peration     | Version:  2.1.1                                 |
|   \\  /    A nd           | Web:      www.OpenFOAM.org                      |
|    \\/     M anipulation  |                                                 |
\*---------------------------------------------------------------------------*/
FoamFile
{
    version     2.0;
    format      ascii;
    class       volSymmTensorField;
    location    "0";
    object      TauDNS;
}
// * * * * * * * * * * * * * * * * * * * * * * * * * * * * * * * * * * * * * //

dimensions      [0 2 -2 0 0 0 0];

internalField   nonuniform List<symmTensor> 
14751
(
(6.731744424619633043e-07 8.320325029748173071e-09 0.000000000000000000e+00 7.445348646306364275e-10 0.000000000000000000e+00 2.369963523137308060e-07)
(6.734675791948272267e-07 8.455296231951398380e-09 0.000000000000000000e+00 7.594935725767594366e-10 0.000000000000000000e+00 2.402318289985214959e-07)
(6.738504083690176458e-07 8.592717235888215650e-09 0.000000000000000000e+00 7.751580935602582624e-10 0.000000000000000000e+00 2.434132265865642641e-07)
(6.741441818286521200e-07 8.730113391182235650e-09 0.000000000000000000e+00 7.934203651071005630e-10 0.000000000000000000e+00 2.464958623143107539e-07)
(6.747740868165122313e-07 8.858535091254142441e-09 0.000000000000000000e+00 8.134036032344165193e-10 0.000000000000000000e+00 2.495657533246248776e-07)
(6.760484064328962089e-07 9.011865536143615544e-09 0.000000000000000000e+00 8.380385959724674218e-10 0.000000000000000000e+00 2.529181458047599799e-07)
(6.772386060000519010e-07 9.158188382694955275e-09 0.000000000000000000e+00 8.644233432640936664e-10 0.000000000000000000e+00 2.563689369218904009e-07)
(6.784099761700479161e-07 9.289531120267237137e-09 0.000000000000000000e+00 8.895631730476669728e-10 0.000000000000000000e+00 2.598663845010529919e-07)
(6.798528596641435366e-07 9.423344797139571526e-09 0.000000000000000000e+00 9.176366592178981020e-10 0.000000000000000000e+00 2.634876382337620819e-07)
(6.808878695954756531e-07 9.571445721270656571e-09 0.000000000000000000e+00 9.465660002486524944e-10 0.000000000000000000e+00 2.672446516028864864e-07)
(6.811722266827209226e-07 9.680259807220070551e-09 0.000000000000000000e+00 9.753208421058584453e-10 0.000000000000000000e+00 2.707386094985933292e-07)
(6.813299590883888249e-07 9.767312899744278299e-09 0.000000000000000000e+00 1.002746860513329830e-09 0.000000000000000000e+00 2.740180391132197126e-07)
(6.817717394994617171e-07 9.826137184094425741e-09 0.000000000000000000e+00 1.028839709316953837e-09 0.000000000000000000e+00 2.770606151797427488e-07)
(6.829338652986415621e-07 9.894165481961988964e-09 0.000000000000000000e+00 1.053722418988308256e-09 0.000000000000000000e+00 2.800168337493137621e-07)
(6.848942120738004651e-07 9.959461771362214765e-09 0.000000000000000000e+00 1.080573853946787354e-09 0.000000000000000000e+00 2.827163026204316348e-07)
(6.872004610461773153e-07 1.004629392273585536e-08 0.000000000000000000e+00 1.105509002643472299e-09 0.000000000000000000e+00 2.852670955194683757e-07)
(6.895010317021472812e-07 1.011153070995078502e-08 0.000000000000000000e+00 1.131811782726360531e-09 0.000000000000000000e+00 2.878914292326767358e-07)
(6.920534351232994887e-07 1.019756787338639615e-08 0.000000000000000000e+00 1.158848567943345712e-09 0.000000000000000000e+00 2.904517509377425581e-07)
(6.943389411822112715e-07 1.025000333580490178e-08 0.000000000000000000e+00 1.191325201786634416e-09 0.000000000000000000e+00 2.930332365440019969e-07)
(6.971425889246628539e-07 1.028594514221355878e-08 0.000000000000000000e+00 1.220289531187641839e-09 0.000000000000000000e+00 2.956357015092964416e-07)
(7.005215663610846314e-07 1.029617795339004389e-08 0.000000000000000000e+00 1.243070373050404412e-09 0.000000000000000000e+00 2.982037670301412073e-07)
(7.049734477572484632e-07 1.033156408725473444e-08 0.000000000000000000e+00 1.270996688841494669e-09 0.000000000000000000e+00 3.007925884538831341e-07)
(7.096018977112778656e-07 1.037258270771989365e-08 0.000000000000000000e+00 1.295900254952836892e-09 0.000000000000000000e+00 3.032639410864645204e-07)
(7.145130647654079367e-07 1.042074900133479211e-08 0.000000000000000000e+00 1.323691591125105278e-09 0.000000000000000000e+00 3.059615561720411277e-07)
(7.192504619064798534e-07 1.048594747253438779e-08 0.000000000000000000e+00 1.352422307796669113e-09 0.000000000000000000e+00 3.083970054729219701e-07)
(7.240721287059940086e-07 1.051592611159169313e-08 0.000000000000000000e+00 1.375689888087759799e-09 0.000000000000000000e+00 3.098692914396685750e-07)
(7.291825731378140985e-07 1.055552114763924382e-08 0.000000000000000000e+00 1.399598336671572095e-09 0.000000000000000000e+00 3.120591314808225148e-07)
(7.345448306465399404e-07 1.061644271397317603e-08 0.000000000000000000e+00 1.430975782767678267e-09 0.000000000000000000e+00 3.144422166963226450e-07)
(7.388774370622114231e-07 1.067107129740030828e-08 0.000000000000000000e+00 1.459450023557705104e-09 0.000000000000000000e+00 3.164406685467847892e-07)
(7.424714362604732440e-07 1.066683836889395439e-08 0.000000000000000000e+00 1.484044033665585060e-09 0.000000000000000000e+00 3.181487308587144040e-07)
(7.459319742984336066e-07 1.063499335067411511e-08 0.000000000000000000e+00 1.498845680911872365e-09 0.000000000000000000e+00 3.195175941396554033e-07)
(7.494004047223121733e-07 1.058367850717442607e-08 0.000000000000000000e+00 1.513858369772991820e-09 0.000000000000000000e+00 3.206039988278924340e-07)
(7.544636028884407195e-07 1.057019925740610322e-08 0.000000000000000000e+00 1.537741395849297992e-09 0.000000000000000000e+00 3.219378874258391382e-07)
(7.591124063442677190e-07 1.062053021323453286e-08 0.000000000000000000e+00 1.566018257015034221e-09 0.000000000000000000e+00 3.233115174702878315e-07)
(7.615813355779203027e-07 1.058240818902297362e-08 0.000000000000000000e+00 1.586075359874292924e-09 0.000000000000000000e+00 3.238996635229681244e-07)
(7.636307097267057699e-07 1.045489181768821373e-08 0.000000000000000000e+00 1.587174424615002406e-09 0.000000000000000000e+00 3.235353248246578596e-07)
(7.665567743952937599e-07 1.034519182342409323e-08 0.000000000000000000e+00 1.585662453955935897e-09 0.000000000000000000e+00 3.226611045569823301e-07)
(7.688440440257534542e-07 1.027344614290782740e-08 0.000000000000000000e+00 1.590289792274913352e-09 0.000000000000000000e+00 3.221062874733323818e-07)
(7.711857891808947219e-07 1.015484077656913587e-08 0.000000000000000000e+00 1.590988650611095898e-09 0.000000000000000000e+00 3.209050476958432959e-07)
(7.741054620589727009e-07 1.008265965867740576e-08 0.000000000000000000e+00 1.592103907219913954e-09 0.000000000000000000e+00 3.195000718185974838e-07)
(7.760523377428184319e-07 1.007501715369612643e-08 0.000000000000000000e+00 1.601588645913280716e-09 0.000000000000000000e+00 3.183405176509867479e-07)
(7.765997857174534963e-07 9.950305649986648064e-09 0.000000000000000000e+00 1.595503140099604798e-09 0.000000000000000000e+00 3.168004834150121401e-07)
(7.770513257064126422e-07 9.821792479189461164e-09 0.000000000000000000e+00 1.589686339737006557e-09 0.000000000000000000e+00 3.144896819728202648e-07)
(7.772398300463794038e-07 9.691624940601911788e-09 0.000000000000000000e+00 1.578255184011081013e-09 0.000000000000000000e+00 3.113975373171611720e-07)
(7.758386073108744525e-07 9.516538743767928118e-09 0.000000000000000000e+00 1.557355751106574282e-09 0.000000000000000000e+00 3.078750942229875834e-07)
(7.751060814276196419e-07 9.268018794247293065e-09 0.000000000000000000e+00 1.529536669267208478e-09 0.000000000000000000e+00 3.034461210929837218e-07)
(7.745653323387989789e-07 9.162717163232367620e-09 0.000000000000000000e+00 1.498834715590773114e-09 0.000000000000000000e+00 2.989945784669699415e-07)
(7.721604987162578963e-07 9.023919627080575841e-09 0.000000000000000000e+00 1.474705804092031546e-09 0.000000000000000000e+00 2.942198765163824896e-07)
(7.690157603173872275e-07 8.863997068484100923e-09 0.000000000000000000e+00 1.447044693575581468e-09 0.000000000000000000e+00 2.894809563229466594e-07)
(7.649040633687018962e-07 8.682143631557534983e-09 0.000000000000000000e+00 1.418186001946880215e-09 0.000000000000000000e+00 2.846149371733260435e-07)
(7.599635260225005462e-07 8.462954427839037909e-09 0.000000000000000000e+00 1.392610756125452186e-09 0.000000000000000000e+00 2.795135188161390046e-07)
(7.558720614163383094e-07 8.289431065630063961e-09 0.000000000000000000e+00 1.368678379409703125e-09 0.000000000000000000e+00 2.744457593777195666e-07)
(7.501215340761112064e-07 8.127104520269181591e-09 0.000000000000000000e+00 1.326778784002802244e-09 0.000000000000000000e+00 2.690467229194611574e-07)
(7.440233526380546703e-07 7.912081398409705021e-09 0.000000000000000000e+00 1.277198729480575267e-09 0.000000000000000000e+00 2.633704470442364433e-07)
(7.381470217171479313e-07 7.749231674309379715e-09 0.000000000000000000e+00 1.239962870711102452e-09 0.000000000000000000e+00 2.584189580394848504e-07)
(7.313270109106537287e-07 7.525921918767229854e-09 0.000000000000000000e+00 1.202556049811416070e-09 0.000000000000000000e+00 2.533595535329283084e-07)
(7.251947904221041609e-07 7.271930515445415720e-09 0.000000000000000000e+00 1.149346418219357394e-09 0.000000000000000000e+00 2.477006027477388097e-07)
(7.200539217834937516e-07 7.070045475822573018e-09 0.000000000000000000e+00 1.104798529607075371e-09 0.000000000000000000e+00 2.424042888299840174e-07)
(7.155836833530410812e-07 6.950846806136115589e-09 0.000000000000000000e+00 1.064071331326868382e-09 0.000000000000000000e+00 2.377382490693414632e-07)
(7.105437238567629346e-07 6.847991970988662743e-09 0.000000000000000000e+00 1.033261727200417826e-09 0.000000000000000000e+00 2.334055369432618226e-07)
(7.046755765497591378e-07 6.703335039265161659e-09 0.000000000000000000e+00 9.929182830075066046e-10 0.000000000000000000e+00 2.289839812479988241e-07)
(6.984120369049385471e-07 6.526105745336014709e-09 0.000000000000000000e+00 9.550071348436493711e-10 0.000000000000000000e+00 2.242108321211756015e-07)
(6.933018466115731607e-07 6.374805827669542357e-09 0.000000000000000000e+00 9.258720421089174628e-10 0.000000000000000000e+00 2.199790156794604112e-07)
(6.892242143423390199e-07 6.288694479070907247e-09 0.000000000000000000e+00 9.003588740071907740e-10 0.000000000000000000e+00 2.163658897087902759e-07)
(6.853719861497623667e-07 6.161978937944026962e-09 0.000000000000000000e+00 8.619400522644344707e-10 0.000000000000000000e+00 2.127606601376957332e-07)
(6.819038312816847358e-07 6.092904992589644438e-09 0.000000000000000000e+00 8.292415128203730368e-10 0.000000000000000000e+00 2.094193759445586676e-07)
(6.784421199491551993e-07 6.036516479796935215e-09 0.000000000000000000e+00 8.066462515810762745e-10 0.000000000000000000e+00 2.063833311115869414e-07)
(6.756514667849006082e-07 5.982298181015817155e-09 0.000000000000000000e+00 7.759499021067194836e-10 0.000000000000000000e+00 2.035733964730697007e-07)
(6.726135162781614193e-07 5.995410631812788433e-09 0.000000000000000000e+00 7.586857560975575250e-10 0.000000000000000000e+00 2.016153313436857942e-07)
(6.685572206095045533e-07 5.926678266416908768e-09 0.000000000000000000e+00 7.348499253914450038e-10 0.000000000000000000e+00 1.997704429392075061e-07)
(6.652555685160140392e-07 5.873875476203620368e-09 0.000000000000000000e+00 7.134459784088618775e-10 0.000000000000000000e+00 1.980275193573002888e-07)
(6.628758278603670661e-07 5.846869754358655374e-09 0.000000000000000000e+00 6.994718473644801822e-10 0.000000000000000000e+00 1.966526166286624709e-07)
(6.609241632498083119e-07 5.848507430838618481e-09 0.000000000000000000e+00 6.882277043926999412e-10 0.000000000000000000e+00 1.957368903139976272e-07)
(6.592217219932847187e-07 5.825101641519545200e-09 0.000000000000000000e+00 6.826461382245606109e-10 0.000000000000000000e+00 1.952565202607509321e-07)
(6.586710844389068201e-07 5.828234025409242526e-09 0.000000000000000000e+00 6.656107702369281614e-10 0.000000000000000000e+00 1.948846017585415851e-07)
(6.581690712389807525e-07 5.870429294821741157e-09 0.000000000000000000e+00 6.521225237650968900e-10 0.000000000000000000e+00 1.947276751008200097e-07)
(6.578042347674016664e-07 5.890321511072708383e-09 0.000000000000000000e+00 6.432693647700811750e-10 0.000000000000000000e+00 1.946330814839479293e-07)
(6.582383366922602770e-07 5.940769647048995365e-09 0.000000000000000000e+00 6.383109730153674164e-10 0.000000000000000000e+00 1.949153960415742589e-07)
(6.591116261174521290e-07 6.005432220604574705e-09 0.000000000000000000e+00 6.358095428336158775e-10 0.000000000000000000e+00 1.955219262330644688e-07)
(6.598732992517752974e-07 6.080738754087083120e-09 0.000000000000000000e+00 6.331643274620232153e-10 0.000000000000000000e+00 1.962319622530983954e-07)
(6.604633505154285500e-07 6.136236522602095249e-09 0.000000000000000000e+00 6.273464215904059839e-10 0.000000000000000000e+00 1.968925874563376493e-07)
(6.610522626164922377e-07 6.223749163976653548e-09 0.000000000000000000e+00 6.222705681175917166e-10 0.000000000000000000e+00 1.978464752775512161e-07)
(6.612106105117855309e-07 6.274971300368087819e-09 0.000000000000000000e+00 6.181098783859803027e-10 0.000000000000000000e+00 1.986242526625811269e-07)
(6.617983011481854904e-07 6.332491408823348186e-09 0.000000000000000000e+00 6.125051580739706744e-10 0.000000000000000000e+00 1.995078103870073033e-07)
(6.626081111779929679e-07 6.415905784638610752e-09 0.000000000000000000e+00 6.119153009204620218e-10 0.000000000000000000e+00 2.005815058115871795e-07)
(6.632414933767393087e-07 6.511018554674216979e-09 0.000000000000000000e+00 6.103390592447127914e-10 0.000000000000000000e+00 2.019542819856157132e-07)
(6.639569304812654380e-07 6.600284225708426824e-09 0.000000000000000000e+00 6.108850380957908123e-10 0.000000000000000000e+00 2.034706595462604314e-07)
(6.650694521691812089e-07 6.687500937439684062e-09 0.000000000000000000e+00 6.145051561897780330e-10 0.000000000000000000e+00 2.051730372945919004e-07)
(6.666913681076592993e-07 6.804534754538895674e-09 0.000000000000000000e+00 6.194370351751039087e-10 0.000000000000000000e+00 2.073387327414668690e-07)
(6.682256902042603323e-07 6.938201720714900872e-09 0.000000000000000000e+00 6.265404582856193472e-10 0.000000000000000000e+00 2.097838034101804637e-07)
(6.695367809871412142e-07 7.071695629803436725e-09 0.000000000000000000e+00 6.340867473707349001e-10 0.000000000000000000e+00 2.123130642017744950e-07)
(6.705412579081904479e-07 7.204162535014826684e-09 0.000000000000000000e+00 6.438321818330937909e-10 0.000000000000000000e+00 2.147754954556020931e-07)
(6.715275659099472590e-07 7.329625768215190351e-09 0.000000000000000000e+00 6.538988043867215086e-10 0.000000000000000000e+00 2.172717767962722973e-07)
(6.724211405431222255e-07 7.486390972239870489e-09 0.000000000000000000e+00 6.642449972682523795e-10 0.000000000000000000e+00 2.199722342761071523e-07)
(6.728614203143800575e-07 7.626184483881609054e-09 0.000000000000000000e+00 6.758950900903218766e-10 0.000000000000000000e+00 2.225738567154977026e-07)
(6.731446601186521314e-07 7.783238576990929910e-09 0.000000000000000000e+00 6.876718743619822991e-10 0.000000000000000000e+00 2.251577938958379538e-07)
(6.729690376767921074e-07 7.936942299687047799e-09 0.000000000000000000e+00 7.014135451789817565e-10 0.000000000000000000e+00 2.279062295532528967e-07)
(6.728344741257954575e-07 8.064550982253364948e-09 0.000000000000000000e+00 7.141544565866456904e-10 0.000000000000000000e+00 2.307369874483396105e-07)
(6.728433424153885920e-07 8.182684458628741888e-09 0.000000000000000000e+00 7.273049073905410031e-10 0.000000000000000000e+00 2.337669923622947873e-07)
(2.049815814408262075e-06 2.533523018457016872e-08 0.000000000000000000e+00 2.267090379951939062e-09 0.000000000000000000e+00 7.216501084490198694e-07)
(2.050709004654567750e-06 2.574646857907225924e-08 0.000000000000000000e+00 2.312667891866508182e-09 0.000000000000000000e+00 7.315082994458184681e-07)
(2.055244118304777259e-06 2.620795168453340170e-08 0.000000000000000000e+00 2.364251668921469571e-09 0.000000000000000000e+00 7.424138603005534037e-07)
(2.059510598061944839e-06 2.667054134953528954e-08 0.000000000000000000e+00 2.423905230110053700e-09 0.000000000000000000e+00 7.530459867079467302e-07)
(2.061435051071285931e-06 2.706284787594865003e-08 0.000000000000000000e+00 2.484951621586642394e-09 0.000000000000000000e+00 7.624239047434385886e-07)
(2.068709580842434629e-06 2.757649182361220096e-08 0.000000000000000000e+00 2.564429923808101788e-09 0.000000000000000000e+00 7.739334944800287825e-07)
(2.075738049417582737e-06 2.807003836513293913e-08 0.000000000000000000e+00 2.649493763698638762e-09 0.000000000000000000e+00 7.857758603090620496e-07)
(2.082720532865539693e-06 2.851906404401678777e-08 0.000000000000000000e+00 2.730997849205963187e-09 0.000000000000000000e+00 7.977951955697834437e-07)
(2.090548614839706209e-06 2.897688003610718164e-08 0.000000000000000000e+00 2.821754146081328815e-09 0.000000000000000000e+00 8.102271490016439893e-07)
(2.097135417557572403e-06 2.948032354475225007e-08 0.000000000000000000e+00 2.915479731227683871e-09 0.000000000000000000e+00 8.231204340083846873e-07)
(2.101416749556827593e-06 2.986377463733989855e-08 0.000000000000000000e+00 3.008912906455419862e-09 0.000000000000000000e+00 8.352348207537620829e-07)
(2.105310503461594914e-06 3.018122392608988629e-08 0.000000000000000000e+00 3.098565553405688502e-09 0.000000000000000000e+00 8.467242528821243243e-07)
(2.110084852258750385e-06 3.041195781345415658e-08 0.000000000000000000e+00 3.184310370796918140e-09 0.000000000000000000e+00 8.575092213878176747e-07)
(2.117096498857473291e-06 3.067196823514887432e-08 0.000000000000000000e+00 3.266564994525323603e-09 0.000000000000000000e+00 8.680548057754791579e-07)
(2.126602685595061818e-06 3.092440671263001078e-08 0.000000000000000000e+00 3.355256824165349609e-09 0.000000000000000000e+00 8.778411402468196144e-07)
(2.137199460136591474e-06 3.124415315952356538e-08 0.000000000000000000e+00 3.438192981496407502e-09 0.000000000000000000e+00 8.871872237235699314e-07)
(2.144354820331365823e-06 3.144704088361433797e-08 0.000000000000000000e+00 3.520006996350647057e-09 0.000000000000000000e+00 8.953493741724372594e-07)
(2.159016129366525509e-06 3.197307861820514653e-08 0.000000000000000000e+00 3.659007731332552587e-09 0.000000000000000000e+00 9.054111501830377270e-07)
(2.174779594047177412e-06 3.251688804767545786e-08 0.000000000000000000e+00 3.846152141244932485e-09 0.000000000000000000e+00 9.159335790225877575e-07)
(2.192223608990038828e-06 3.301116588659254895e-08 0.000000000000000000e+00 4.025957014674627743e-09 0.000000000000000000e+00 9.265413588568901210e-07)
(2.211567760831274400e-06 3.342664693542125067e-08 0.000000000000000000e+00 4.189879138114758093e-09 0.000000000000000000e+00 9.370663473812126799e-07)
(2.225560551066129628e-06 3.353999009260116031e-08 0.000000000000000000e+00 4.281799379621836153e-09 0.000000000000000000e+00 9.451520052837823319e-07)
(2.248980192575386219e-06 3.405529090808912292e-08 0.000000000000000000e+00 4.457851230197013914e-09 0.000000000000000000e+00 9.554083636844051040e-07)
(2.273332623460794156e-06 3.459375466349557807e-08 0.000000000000000000e+00 4.645156171353146935e-09 0.000000000000000000e+00 9.663806421227660450e-07)
(2.288421132561580280e-06 3.480621516976029833e-08 0.000000000000000000e+00 4.745419690481706564e-09 0.000000000000000000e+00 9.739999138955898673e-07)
(2.312632689305317675e-06 3.528960554287435139e-08 0.000000000000000000e+00 4.921538466990015434e-09 0.000000000000000000e+00 9.811510732515203942e-07)
(2.337903427861960561e-06 3.580630290327586229e-08 0.000000000000000000e+00 5.104272591311211916e-09 0.000000000000000000e+00 9.905564986751318980e-07)
(2.354959707424538798e-06 3.600286019746511490e-08 0.000000000000000000e+00 5.215522582998846234e-09 0.000000000000000000e+00 9.980009329503032131e-07)
(2.377946007509813728e-06 3.656830255802485295e-08 0.000000000000000000e+00 5.417302561673853867e-09 0.000000000000000000e+00 1.006802530272484472e-06)
(2.389572995996896727e-06 3.655701883138669378e-08 0.000000000000000000e+00 5.506399126344577185e-09 0.000000000000000000e+00 1.012154418722117034e-06)
(2.409994181994132681e-06 3.684590297440933807e-08 0.000000000000000000e+00 5.664635766035138004e-09 0.000000000000000000e+00 1.019003563259539802e-06)
(2.421392939828413177e-06 3.667961757521510666e-08 0.000000000000000000e+00 5.722201108700860871e-09 0.000000000000000000e+00 1.022388449086914339e-06)
(2.437633347657475989e-06 3.663030261459221869e-08 0.000000000000000000e+00 5.807456827838791987e-09 0.000000000000000000e+00 1.026543993781931753e-06)
(2.462043148954187830e-06 3.718079021855516645e-08 0.000000000000000000e+00 6.017814745362346744e-09 0.000000000000000000e+00 1.033359709031118918e-06)
(2.470126683606117072e-06 3.704899229005775783e-08 0.000000000000000000e+00 6.087283417050845547e-09 0.000000000000000000e+00 1.035143666674869107e-06)
(2.476955068358769086e-06 3.661042054935963232e-08 0.000000000000000000e+00 6.091633281391126004e-09 0.000000000000000000e+00 1.033923394061665388e-06)
(2.495907397713425512e-06 3.661565842070636104e-08 0.000000000000000000e+00 6.192787804777999321e-09 0.000000000000000000e+00 1.033649602682220115e-06)
(2.503550367429984102e-06 3.636330350775094231e-08 0.000000000000000000e+00 6.207929633529651113e-09 0.000000000000000000e+00 1.031759823843836525e-06)
(2.511241835043223263e-06 3.595676398954862575e-08 0.000000000000000000e+00 6.208502495776771259e-09 0.000000000000000000e+00 1.027866206354581710e-06)
(2.520679473365937964e-06 3.570087520071329748e-08 0.000000000000000000e+00 6.208630035840701029e-09 0.000000000000000000e+00 1.023348310956662012e-06)
(2.536814217064572088e-06 3.602720703029563427e-08 0.000000000000000000e+00 6.346887869822644219e-09 0.000000000000000000e+00 1.022011918812363201e-06)
(2.538793732466310560e-06 3.559958940974024291e-08 0.000000000000000000e+00 6.323241412375633405e-09 0.000000000000000000e+00 1.017003784373110314e-06)
(2.540478216384181781e-06 3.513509278242239851e-08 0.000000000000000000e+00 6.294771956352451355e-09 0.000000000000000000e+00 1.009474236291194641e-06)
(2.541238151773338883e-06 3.466759157093501599e-08 0.000000000000000000e+00 6.244551311267925349e-09 0.000000000000000000e+00 9.995137832708551361e-07)
(2.537032358138962827e-06 3.407487094707367665e-08 0.000000000000000000e+00 6.162738719330893029e-09 0.000000000000000000e+00 9.882578404819370601e-07)
(2.534805392162258410e-06 3.322265102150272251e-08 0.000000000000000000e+00 6.051837209222625008e-09 0.000000000000000000e+00 9.740942376116690404e-07)
(2.533156584289408079e-06 3.282710129977029618e-08 0.000000000000000000e+00 5.931397794859647107e-09 0.000000000000000000e+00 9.598095480122210093e-07)
(2.525623701383209046e-06 3.233396629386711525e-08 0.000000000000000000e+00 5.832521046829206154e-09 0.000000000000000000e+00 9.445098004521510520e-07)
(2.515642916071080817e-06 3.176087049584922992e-08 0.000000000000000000e+00 5.719463131684020304e-09 0.000000000000000000e+00 9.292052678634130595e-07)
(2.502643877538763145e-06 3.112968399565694445e-08 0.000000000000000000e+00 5.605479518766651264e-09 0.000000000000000000e+00 9.135874519289127982e-07)
(2.486868942350110541e-06 3.036378614110859285e-08 0.000000000000000000e+00 5.499631616248919702e-09 0.000000000000000000e+00 8.971977856247851329e-07)
(2.473714361261470207e-06 2.974922968565012963e-08 0.000000000000000000e+00 5.401172594224069381e-09 0.000000000000000000e+00 8.809874626418869220e-07)
(2.455394284990822132e-06 2.917561426037989870e-08 0.000000000000000000e+00 5.238386160698006432e-09 0.000000000000000000e+00 8.637186968779089283e-07)
(2.435990047304562610e-06 2.844122552907971686e-08 0.000000000000000000e+00 5.052437327191310996e-09 0.000000000000000000e+00 8.456524343681673641e-07)
(2.417065710213749220e-06 2.785352356265990196e-08 0.000000000000000000e+00 4.899302464801224309e-09 0.000000000000000000e+00 8.297517020706008399e-07)
(2.395309842864940583e-06 2.707711358311299994e-08 0.000000000000000000e+00 4.752531791232686302e-09 0.000000000000000000e+00 8.135968176579903613e-07)
(2.375777906752212145e-06 2.620114409889095472e-08 0.000000000000000000e+00 4.550641290381173586e-09 0.000000000000000000e+00 7.956400020998777876e-07)
(2.359429062668264510e-06 2.551662038308949432e-08 0.000000000000000000e+00 4.382686678067610122e-09 0.000000000000000000e+00 7.788256940821343401e-07)
(2.345019455180669109e-06 2.507877087742877940e-08 0.000000000000000000e+00 4.221118410405754991e-09 0.000000000000000000e+00 7.638980133809867340e-07)
(2.319553136421241378e-06 2.444753551530357333e-08 0.000000000000000000e+00 4.028521224273592361e-09 0.000000000000000000e+00 7.482109780803262537e-07)
(2.300713958279678709e-06 2.394824366817655894e-08 0.000000000000000000e+00 3.871817781427042078e-09 0.000000000000000000e+00 7.341054134731600530e-07)
(2.280671418461209343e-06 2.334339356832963899e-08 0.000000000000000000e+00 3.728178935891721953e-09 0.000000000000000000e+00 7.189423136447030114e-07)
(2.264264920373834055e-06 2.281922924925208497e-08 0.000000000000000000e+00 3.614956131164052421e-09 0.000000000000000000e+00 7.054983246353267164e-07)
(2.242028405635183129e-06 2.226008160542094967e-08 0.000000000000000000e+00 3.453221503415781392e-09 0.000000000000000000e+00 6.922462968149796641e-07)
(2.229728053533767579e-06 2.183418752065775125e-08 0.000000000000000000e+00 3.312411352107392492e-09 0.000000000000000000e+00 6.808304766041457421e-07)
(2.218658337945801640e-06 2.159586689113188851e-08 0.000000000000000000e+00 3.189833819416393465e-09 0.000000000000000000e+00 6.702587196176812337e-07)
(2.198573866229276434e-06 2.115963568663104099e-08 0.000000000000000000e+00 3.047077050374910181e-09 0.000000000000000000e+00 6.589288927514364274e-07)
(2.189611964015257560e-06 2.097857078174020730e-08 0.000000000000000000e+00 2.935660417800757931e-09 0.000000000000000000e+00 6.500825083761596032e-07)
(2.179874986383500710e-06 2.101663274495646814e-08 0.000000000000000000e+00 2.870660573009385583e-09 0.000000000000000000e+00 6.439235700706096637e-07)
(2.157943030490908260e-06 2.054828443544817442e-08 0.000000000000000000e+00 2.730897466824478288e-09 0.000000000000000000e+00 6.364218922545176890e-07)
(2.147405525197586108e-06 2.037324385889655479e-08 0.000000000000000000e+00 2.653567955961745588e-09 0.000000000000000000e+00 6.309746695858767953e-07)
(2.130879795799706547e-06 2.004076674042247755e-08 0.000000000000000000e+00 2.553770194419088119e-09 0.000000000000000000e+00 6.249754891227275268e-07)
(2.124653202924033779e-06 2.004398203737514838e-08 0.000000000000000000e+00 2.512935975313812233e-09 0.000000000000000000e+00 6.221368311039773475e-07)
(2.110348518169643724e-06 1.973044895562175303e-08 0.000000000000000000e+00 2.442775418156537825e-09 0.000000000000000000e+00 6.189673881388660664e-07)
(2.099694888147079304e-06 1.950047959939708453e-08 0.000000000000000000e+00 2.337277956098550145e-09 0.000000000000000000e+00 6.161271819439711467e-07)
(2.098119414384890277e-06 1.963861755137072534e-08 0.000000000000000000e+00 2.292124049844056385e-09 0.000000000000000000e+00 6.156687272119738542e-07)
(2.088098214946265871e-06 1.946252490838326977e-08 0.000000000000000000e+00 2.215514799419950156e-09 0.000000000000000000e+00 6.136866721470210797e-07)
(2.080566749573486212e-06 1.938198444235722862e-08 0.000000000000000000e+00 2.152576030843036342e-09 0.000000000000000000e+00 6.128720683248406215e-07)
(2.083279188508672001e-06 1.959155746904231284e-08 0.000000000000000000e+00 2.144274255500517591e-09 0.000000000000000000e+00 6.147993788929548316e-07)
(2.076772961954375555e-06 1.958353198594409861e-08 0.000000000000000000e+00 2.090086060510902720e-09 0.000000000000000000e+00 6.152853337404763188e-07)
(2.069734881687766682e-06 1.950852012402057101e-08 0.000000000000000000e+00 2.026079232247358507e-09 0.000000000000000000e+00 6.155943332635912171e-07)
(2.062697725406287262e-06 1.952916224278279487e-08 0.000000000000000000e+00 1.964913478107928350e-09 0.000000000000000000e+00 6.167942296325073422e-07)
(2.056364263454615266e-06 1.951508770776984601e-08 0.000000000000000000e+00 1.922339799486853275e-09 0.000000000000000000e+00 6.177194027150176774e-07)
(2.054881713944220298e-06 1.966218555987968284e-08 0.000000000000000000e+00 1.901825863424450809e-09 0.000000000000000000e+00 6.194693984750515605e-07)
(2.054083214862159096e-06 1.988907624389565749e-08 0.000000000000000000e+00 1.896946137755357644e-09 0.000000000000000000e+00 6.217994547567020192e-07)
(2.052730890894367144e-06 2.015135533141957083e-08 0.000000000000000000e+00 1.889003163956171197e-09 0.000000000000000000e+00 6.250447234724924189e-07)
(2.054944877259008341e-06 2.042769143030565457e-08 0.000000000000000000e+00 1.890683640238000140e-09 0.000000000000000000e+00 6.297383100683162084e-07)
(2.055061150777501623e-06 2.066414526838253046e-08 0.000000000000000000e+00 1.898806247544499902e-09 0.000000000000000000e+00 6.339800613631848309e-07)
(2.056739269584987821e-06 2.099167940076660520e-08 0.000000000000000000e+00 1.910945641079380039e-09 0.000000000000000000e+00 6.396349091372841196e-07)
(2.058132205049246574e-06 2.136939635800068354e-08 0.000000000000000000e+00 1.929730132729686586e-09 0.000000000000000000e+00 6.461288219058321621e-07)
(2.058823286557932626e-06 2.174519197661383937e-08 0.000000000000000000e+00 1.949805724575601952e-09 0.000000000000000000e+00 6.528578968236530133e-07)
(2.058560155990359457e-06 2.211657939193102556e-08 0.000000000000000000e+00 1.976547706116773419e-09 0.000000000000000000e+00 6.593565567684688912e-07)