/*--------------------------------*- C++ -*----------------------------------*\
| =========                 |                                                 |
| \\      /  F ield         | OpenFOAM: The Open Source CFD Toolbox           |
|  \\    /   O peration     | Version:  2.3.x                                 |
|   \\  /    A nd           | Web:      www.OpenFOAM.org                      |
|    \\/     M anipulation  |                                                 |
\*---------------------------------------------------------------------------*/
FoamFile
{
    version     2.0;
    format      ascii;
    class       volVectorField;
    location    "0";
    object      UDNS;
}
// * * * * * * * * * * * * * * * * * * * * * * * * * * * * * * * * * * * * * //

dimensions      [0 1 -1 0 0 0 0];

internalField   nonuniform List<vector> 
14751
(
(1.670148029689285524e-03 3.820983721338573156e-08 -1.009833813276945520e-07)
(1.667444645611251223e-03 1.126700409845865338e-07 -4.635937253554335505e-08)
(1.662640356534575252e-03 1.512657314422453544e-07 7.377029953012734992e-09)
(1.655782418825450623e-03 2.496119546474834899e-07 6.514820995145180656e-08)
(1.646975310876722109e-03 2.521359516097739461e-07 1.082549245021167912e-07)
(1.636289464356272157e-03 3.649508060760015741e-07 1.429227511031743160e-07)
(1.623771160430426304e-03 3.738534933620225642e-07 1.736610440292496721e-07)
(1.609557427626544593e-03 4.535282470665189853e-07 1.985169158519191754e-07)
(1.593777839346248969e-03 4.834615962658724539e-07 2.104160709838263715e-07)
(1.576543015202231963e-03 5.256049228601131035e-07 2.226515676292163256e-07)
(1.557989148677657717e-03 5.799959327795100408e-07 2.693529706581905915e-07)
(1.538306609469899597e-03 5.759196774711389731e-07 3.303640893889527231e-07)
(1.517679336981164404e-03 6.554868210501860248e-07 3.980193498263609303e-07)
(1.496338480603362714e-03 6.010093972435593901e-07 4.685791045144307533e-07)
(1.474509279223476738e-03 6.844722092200215263e-07 5.356966562491535291e-07)
(1.452485276270697829e-03 6.328535026959244965e-07 5.899947306299683766e-07)
(1.430389028424665192e-03 6.706514351895246849e-07 6.262255618003443930e-07)
(1.408317795549135758e-03 6.512013039553800778e-07 6.362609259971986289e-07)
(1.386323097445226003e-03 6.479094127125113244e-07 6.447630096377608786e-07)
(1.364571183319791825e-03 6.557830982326579556e-07 6.903769591295846576e-07)
(1.343233555151808738e-03 6.065097776546554937e-07 7.525952275757606401e-07)
(1.322400898612364258e-03 6.422793899226394905e-07 8.159923117844090042e-07)
(1.302116070102145307e-03 5.595629682762132443e-07 8.609692484691757165e-07)
(1.282432126655166406e-03 6.052368170065530503e-07 8.879795288320682801e-07)
(1.263343564305128989e-03 5.420630195634252110e-07 8.970333322081315027e-07)
(1.244883826948133465e-03 5.497611101291198733e-07 8.782309689865543225e-07)
(1.227142550094111398e-03 5.168332534857480879e-07 8.833420550069213815e-07)
(1.209979750235981111e-03 4.993010805919355594e-07 9.032801305481592985e-07)
(1.193495186732177610e-03 4.915951059566790456e-07 9.413934331644482705e-07)
(1.177585935598860411e-03 4.540364446916456788e-07 9.566861380686994464e-07)
(1.162256325689686775e-03 4.656488259550502581e-07 8.684980510241476906e-07)
(1.147521233675576806e-03 4.116934652503422009e-07 7.243582215587649387e-07)
(1.133433623344437579e-03 4.256899763532044419e-07 6.098260306006229635e-07)
(1.119759748192578324e-03 3.965793895803466640e-07 5.817183095268174395e-07)
(1.106407234707967044e-03 3.974443504572210207e-07 5.896175818975089854e-07)
(1.093566303574114874e-03 3.710223134317628381e-07 5.543573042057024374e-07)
(1.081574304985827035e-03 3.446199241972874337e-07 4.583158754330314156e-07)
(1.070446528937803133e-03 3.235096060095492541e-07 3.292719451121121139e-07)
(1.060064544186389629e-03 2.960923403509816190e-07 2.140952614136522782e-07)
(1.050577266443933561e-03 2.728914519801060846e-07 1.990696694350346250e-07)
(1.041721240991895503e-03 2.618523423077939367e-07 1.904305433561588019e-07)
(1.033233849597515108e-03 2.433837993925624648e-07 1.668615670145576573e-07)
(1.025361541762623068e-03 2.286903943936009821e-07 1.283169622558664630e-07)
(1.018277550275065039e-03 1.996390936148789495e-07 1.062299565025154165e-07)
(1.011891633507576698e-03 1.828262847931859212e-07 1.316253630872535610e-07)
(1.006379250429291624e-03 1.499154880522086222e-07 1.632509325049135625e-07)
(1.002082814983871681e-03 1.078759591319178537e-07 1.401384042723419147e-07)
(9.988253073498856195e-04 9.418605897979428984e-08 9.568788683657169298e-08)
(9.965036174269016351e-04 4.339243463817450300e-08 6.812987334338968914e-08)
(9.951628360163791275e-04 4.623995383687760856e-08 9.956084977717785765e-08)
(9.949776302351702288e-04 -2.665992002449248655e-08 1.132607952141450119e-07)
(9.959809799536412794e-04 -2.940388637882357411e-08 1.517934278829281408e-07)
(9.980792846040710195e-04 -8.347817323412686191e-08 2.159508163543251250e-07)
(1.001286763644854919e-03 -1.053604042265360185e-07 2.648460398889063623e-07)
(1.005544913805098573e-03 -1.351496486261307080e-07 2.756934495874687201e-07)
(1.010911567674657036e-03 -1.848997771410716496e-07 2.486713835834757904e-07)
(1.017660811688091398e-03 -2.009368956407889057e-07 2.460665640034014286e-07)
(1.025762584826346363e-03 -2.810475015491269924e-07 1.964833957535877465e-07)
(1.035143850645962177e-03 -2.589181885241536590e-07 1.741464094859356594e-07)
(1.045570566237370583e-03 -3.462078922392806708e-07 9.824680988720220254e-08)
(1.056958599477449004e-03 -3.294913472155535105e-07 8.856637765621228774e-09)
(1.069397377266613708e-03 -3.963679883502248854e-07 -8.375796792889043699e-08)
(1.083059258099308784e-03 -4.149589784877554555e-07 -2.072932571771952506e-07)
(1.097770670891133745e-03 -4.432750424112889680e-07 -3.433197887445880760e-07)
(1.113470545364014883e-03 -4.907293220917473033e-07 -4.669004793653874305e-07)
(1.130150920462891576e-03 -4.842287741783120178e-07 -5.734373341861667201e-07)
(1.147659877611609345e-03 -5.570136064236018528e-07 -6.434554793591577762e-07)
(1.165900046909239610e-03 -5.119819800124962689e-07 -6.822693826001583282e-07)
(1.184736095993407703e-03 -5.918097307105640049e-07 -7.130593942918595810e-07)
(1.204061954915592756e-03 -5.590426004379505670e-07 -7.356733758280795095e-07)
(1.223938284382324699e-03 -6.076749198554101999e-07 -7.674763579873795908e-07)
(1.244278251032273448e-03 -6.038156107043444504e-07 -8.007177724254410422e-07)
(1.264978197583201472e-03 -6.122948590604141312e-07 -8.340294229082803964e-07)
(1.285887061519790878e-03 -6.337897860716098370e-07 -8.802819122585625171e-07)
(1.307031024153766392e-03 -6.107690305753608252e-07 -9.146701511316305503e-07)
(1.328271244687543890e-03 -6.546640577362648737e-07 -9.300431755039863092e-07)
(1.349528939732437928e-03 -6.006491181828050611e-07 -9.292913069435721026e-07)
(1.370748455184016973e-03 -6.506523056211597168e-07 -9.082432064873103050e-07)
(1.391788002260306882e-03 -6.060588530636417513e-07 -8.781726707443315578e-07)
(1.412572052537723263e-03 -6.223384169834167636e-07 -8.455543869361302515e-07)
(1.433081258319215956e-03 -6.037021692434725988e-07 -8.205030543665291384e-07)
(1.453265096118145153e-03 -5.918283659573654187e-07 -7.974158560864184360e-07)
(1.472989427865103009e-03 -5.886266491828165682e-07 -7.809040103240675519e-07)
(1.492324898611290364e-03 -5.596107671180850709e-07 -7.503594117511197914e-07)
(1.511177107926356920e-03 -5.677362255638686597e-07 -7.249839869696355442e-07)
(1.529475709563504716e-03 -5.235855564394801511e-07 -7.114522583929344747e-07)
(1.547133590462602655e-03 -5.274568359907697200e-07 -7.037195036365319734e-07)
(1.564110069879527144e-03 -4.923479181946202221e-07 -6.915917653408791562e-07)
(1.580306280284958943e-03 -4.752311186187434134e-07 -6.690610868374527456e-07)
(1.595557000149433902e-03 -4.421683568400044931e-07 -6.338792852627530176e-07)
(1.609718548429129367e-03 -4.090682691193992634e-07 -5.780857939877143690e-07)
(1.622693180088432803e-03 -3.728324086634973029e-07 -5.231887313942087275e-07)
(1.634398587282178631e-03 -3.369688806945549394e-07 -4.744175329903185526e-07)
(1.644710242859699330e-03 -2.857534841351427435e-07 -4.340136539109075659e-07)
(1.653473962524012889e-03 -2.527367712298155085e-07 -3.833277921246749016e-07)
(1.660562352222378843e-03 -1.835018978968787397e-07 -3.265068359123937520e-07)
(1.665876418479490589e-03 -1.456826620142441161e-07 -2.707489163766301801e-07)
(1.669291578429460193e-03 -7.460599342783153830e-08 -2.110452028128390607e-07)
(1.670738689155730483e-03 -2.298255608349839580e-08 -1.542452107075075195e-07)
(5.085602588323481776e-03 1.166396232988489996e-07 -3.075574081511225397e-07)
(5.077366160438015127e-03 3.433895727054510615e-07 -1.411232985051997599e-07)
(5.071046622260107217e-03 4.609994204912366775e-07 2.255991258787998103e-08)
(5.058412384336400357e-03 7.627412509243587380e-07 1.990491171896485316e-07)
(5.031508210145300974e-03 7.702147079487467160e-07 3.307248148196887439e-07)
(5.007032612963178281e-03 1.116283234254449087e-06 4.373810436174792244e-07)
(4.976838439660714007e-03 1.146677422266781722e-06 5.323133685449218862e-07)
(4.941318782734157970e-03 1.391630120832397846e-06 6.094729939848695817e-07)
(4.900854935462006963e-03 1.487061287315527382e-06 6.470351109633580981e-07)
(4.855718949383411483e-03 1.617907690901818983e-06 6.858084842430625938e-07)
(4.806360735616715084e-03 1.790407804414915679e-06 8.310810765943177426e-07)
(4.753314618051565459e-03 1.778162007552877791e-06 1.020986848315972075e-06)
(4.697170422685447919e-03 2.030089104830591741e-06 1.232005854220588635e-06)
(4.638628604248402724e-03 1.863650104992747280e-06 1.452666574897469058e-06)
(4.578293737997309737e-03 2.123751031684309689e-06 1.663493627082740193e-06)
(4.517171353286158521e-03 1.969728380066293877e-06 1.835007721048061453e-06)
(4.448451959876998166e-03 2.084188351842118546e-06 1.947599588532188244e-06)
(4.386455285711879544e-03 2.035213669490926684e-06 1.982078164038972868e-06)
(4.324324516037521791e-03 2.033491621208228740e-06 2.012040328314391242e-06)
(4.262780974907955447e-03 2.072991828937942766e-06 2.157851933572646934e-06)
(4.202348717491533915e-03 1.928055128849054898e-06 2.355815475271404899e-06)
(4.137286585172892349e-03 2.040687110602129295e-06 2.553742005637609573e-06)
(4.079892150349508778e-03 1.790992182637177463e-06 2.699065598943820074e-06)
(4.024323412117887348e-03 1.938935840168528819e-06 2.788351484611620085e-06)
(3.964508572803981598e-03 1.741952044051466894e-06 2.817797006873935016e-06)
(3.912624764784810097e-03 1.772728864517222115e-06 2.764385428983882798e-06)
(3.862774478433065109e-03 1.681166168454565930e-06 2.785182930476803896e-06)
(3.808940956788459467e-03 1.620152081113488959e-06 2.848225171833485966e-06)
(3.762873542031492519e-03 1.605648850551620564e-06 2.971855135750370677e-06)
(3.712909372799398471e-03 1.482167280967675079e-06 3.018622078522544400e-06)
(3.670334052881385391e-03 1.527233289895745300e-06 2.746609886195077364e-06)
(3.623946545845752997e-03 1.355189618211969986e-06 2.291427778342821721e-06)
(3.579667813517935660e-03 1.393385900373093835e-06 1.930147321579985460e-06)
(3.542037984061895822e-03 1.308324550094572439e-06 1.841740887950046409e-06)
(3.500099392809835445e-03 1.308752548239174253e-06 1.864089348438216071e-06)
(3.459655212582258502e-03 1.222572633159338217e-06 1.750304223443928025e-06)
(3.427283509876717822e-03 1.142189943703841065e-06 1.450144818580755270e-06)
(3.392192348197610105e-03 1.071314762558514671e-06 1.042685671340465523e-06)
(3.359507540558695753e-03 9.816490784583379942e-07 6.819176085344801318e-07)
(3.329689871015281428e-03 9.049586008373890293e-07 6.360828816381427481e-07)
(3.306940501163413253e-03 8.710427282961229226e-07 6.099582080560007379e-07)
(3.280220924399226794e-03 8.112226356709229493e-07 5.329429822067639956e-07)
(3.255403095771122399e-03 7.601566057669203248e-07 4.106208535894063717e-07)
(3.233116444540468527e-03 6.630163147411203050e-07 3.428023302304393969e-07)
(3.213075971165193969e-03 6.060063069914138476e-07 4.220265409098175936e-07)
(3.195759319890653302e-03 4.995118145251910462e-07 5.208455248171964478e-07)
(3.182257504711164323e-03 3.581673848780032481e-07 4.474369667201446530e-07)
(3.172044913623735425e-03 3.117800909122670959e-07 3.058748152123237586e-07)
(3.164799052510838383e-03 1.463466499157859274e-07 2.163701106014329912e-07)
(3.160667031631489345e-03 1.442073973023813651e-07 3.132014784524315183e-07)
(3.160196760925805103e-03 -9.175749509575028649e-08 3.549048180162764152e-07)
(3.163467266160060239e-03 -1.033767953143541205e-07 4.785588475338908669e-07)
(3.170202801727420566e-03 -2.841557033254060252e-07 6.819700544590978880e-07)
(3.180406595806850242e-03 -3.585438906555660289e-07 8.347240256997085484e-07)
(3.194011657699336905e-03 -4.597974516939047356e-07 8.684777703420739009e-07)
(3.211086715555483070e-03 -6.173625804967247959e-07 7.843354353405043380e-07)
(3.232519089566778143e-03 -6.827298895840538281e-07 7.758512441680190587e-07)
(3.258148403349462111e-03 -9.389848056004271077e-07 6.194781023196300361e-07)
(3.287960440040188677e-03 -8.795949343685948124e-07 5.477891185603880912e-07)
(3.315678579586025729e-03 -1.145934666770638281e-06 3.076904324863307460e-07)
(3.351799918174560178e-03 -1.100284963667440211e-06 2.496988925324249492e-08)
(3.391159728004149946e-03 -1.322236170935284400e-06 -2.669945163282123043e-07)
(3.434357335783919628e-03 -1.380104180325305596e-06 -6.565597066725993660e-07)
(3.475305618698924705e-03 -1.472483186510917228e-06 -1.084189455200909337e-06)
(3.524862291882911204e-03 -1.619328943628417515e-06 -1.475542527676408428e-06)
(3.577507567020099446e-03 -1.610619672704208244e-06 -1.813393339047394408e-06)
(3.626980881363049518e-03 -1.825113173563750545e-06 -2.033374225538070350e-06)
(3.684455809555276656e-03 -1.694407038368160904e-06 -2.157597845896774972e-06)
(3.743798416301119449e-03 -1.940384587551757452e-06 -2.255121033989425725e-06)
(3.798800725636930931e-03 -1.830183025290501817e-06 -2.323197158202002652e-06)
(3.861311345710555318e-03 -1.988883709996234638e-06 -2.422986271099081036e-06)
(3.919047754131512601e-03 -1.966148830938622201e-06 -2.523477175908671070e-06)
(3.984053954058178366e-03 -1.990472790627389275e-06 -2.627613891012249514e-06)
(4.043486533505673448e-03 -2.045574432561402799e-06 -2.768055122389917918e-06)
(4.103397932926769638e-03 -1.967396275717552674e-06 -2.871773585270264894e-06)
(4.169874208820680862e-03 -2.102383949825157568e-06 -2.919951517253081363e-06)
(4.229925455950584411e-03 -1.922807742861086453e-06 -2.913051237574642546e-06)
(4.289684596999888966e-03 -2.066142454309926449e-06 -2.842818608209702773e-06)
(4.355443061534471604e-03 -1.926734510447667233e-06 -2.748666474535423690e-06)
(4.413574845082081539e-03 -1.966037199968571003e-06 -2.642552470801788757e-06)
(4.470706164675460406e-03 -1.895907226356196079e-06 -2.560269197103132020e-06)
(4.526670436594978919e-03 -1.849177102674341949e-06 -2.484136010487612767e-06)
(4.580945937992568495e-03 -1.829879567754396913e-06 -2.428656468841210644e-06)
(4.633618677742730799e-03 -1.738324046799572133e-06 -2.329955366232676363e-06)
(4.684600251369751972e-03 -1.759409777836159626e-06 -2.247500226267163774e-06)
(4.733680093132125802e-03 -1.621061931358785053e-06 -2.201965478108390754e-06)
(4.788339623498146305e-03 -1.632892395172721147e-06 -2.178025934306906291e-06)
(4.833061710567292113e-03 -1.521107811776932918e-06 -2.137067254878782974e-06)
(4.875210747321648622e-03 -1.466353914150923015e-06 -2.064118508434352219e-06)
(4.914284718920677864e-03 -1.361824661273316166e-06 -1.952445167231654387e-06)
(4.949858582262715162e-03 -1.257991937379978493e-06 -1.777727207796614639e-06)
(4.981646743033554987e-03 -1.144689174912170558e-06 -1.606283372833773081e-06)
(5.009415049366618133e-03 -1.032788753085079220e-06 -1.454150173671798533e-06)
(5.032801440920961142e-03 -8.745772878399360212e-07 -1.328131337528678474e-06)
(5.051337909337133732e-03 -7.720459533689031956e-07 -1.171117754099571608e-06)
(5.064710343076779704e-03 -5.595848921315027614e-07 -9.958904108539974748e-07)
(5.072591604839056002e-03 -4.437334207722994241e-07 -8.244587770305962820e-07)
(5.082992226808319240e-03 -2.271257267688096171e-07 -6.426490021847401955e-07)
(5.087399290936430590e-03 -6.999620626372330419e-08 -4.696788946943733829e-07)
(8.313172102054969259e-03 7.698707653692573099e-07 -4.293334439982279472e-07)
(8.300613095747508968e-03 1.349667176227573309e-06 -1.790127458088795834e-07)
(8.294415393611165657e-03 2.013291144834457808e-06 7.179316343433802964e-08)
(8.270027228528572041e-03 2.659294263610003632e-06 3.779109220222311042e-07)
(8.244948342982170650e-03 3.281878071048948810e-06 6.204990459550707896e-07)
(8.210746577143700556e-03 3.891373954395327945e-06 8.266704047459778534e-07)
(8.168255934067421634e-03 4.439436080966004464e-06 1.022208092248393530e-06)
(8.125252270526741108e-03 5.034041862272901332e-06 1.170570366870001658e-06)
(8.067786531451858617e-03 5.457236771977665447e-06 1.230769083323382261e-06)
(8.012659920606856473e-03 5.918516512942041173e-06 1.308224516029965929e-06)
(7.949635537742388847e-03 6.419894774279347267e-06 1.543252028668280358e-06)
(7.872888706576338866e-03 6.821772783286870269e-06 1.871303921339304369e-06)
(7.800804171874887311e-03 7.027561957639028148e-06 2.205077485587742429e-06)
(7.725016388009178087e-03 7.310476667838355828e-06 2.567707162204776922e-06)
(7.640231552102531160e-03 7.393506737763390777e-06 2.894988731170947462e-06)
(7.558943731043510708e-03 7.500299754965060803e-06 3.181862984134693442e-06)
(7.473301114740694279e-03 7.485692164863640000e-06 3.414350259565161940e-06)
(7.390452277599437840e-03 7.522153751451785565e-06 3.543748983506134342e-06)
(7.305141539182356120e-03 7.503930855490271212e-06 3.629137347464710825e-06)
(7.219160525521493149e-03 7.474153689971053377e-06 3.844158285332702424e-06)
(7.133549328603380930e-03 7.372797793302016260e-06 4.148718712609231718e-06)
(7.052872282117908856e-03 7.156733044476004173e-06 4.456338407029207487e-06)
(6.967189572716812711e-03 6.988108861799451628e-06 4.734658833516993145e-06)
(6.891013660717046699e-03 6.750962348069088702e-06 4.922503400320383792e-06)
(6.810148645473470055e-03 6.587526847935303638e-06 5.068950401021818777e-06)
(6.739937345705273100e-03 6.337497595790510176e-06 5.061585727677339592e-06)
(6.665800187998499951e-03 6.200691460727906791e-06 5.097730187911073553e-06)
(6.594545620128306612e-03 5.943854309471213875e-06 5.234341946300628427e-06)
(6.526532189377710381e-03 5.749418381195609592e-06 5.363488025473635892e-06)
(6.461516938665273595e-03 5.547420724386876190e-06 5.375190406110660556e-06)
(6.399306579970702111e-03 5.340467109481214622e-06 4.966665615357560261e-06)
(6.334386527265731953e-03 5.149861017859506317e-06 4.209250209390844500e-06)
(6.278089770214319125e-03 4.925897208279954302e-06 3.597436535185620635e-06)
(6.217569637391400991e-03 4.837662909560662430e-06 3.320256542713319807e-06)
(6.160155402902066368e-03 4.678578325976736160e-06 3.224790140848779785e-06)
(6.104041777186000606e-03 4.440792892797916847e-06 2.940620926529148842e-06)
(6.058288301540565302e-03 4.138748100095697216e-06 2.464902432092251454e-06)
(6.010130432512614945e-03 3.847754126722118099e-06 1.822984819275370669e-06)
(5.961082624686365496e-03 3.564006369439939397e-06 1.355941335982029382e-06)
(5.921755950175688898e-03 3.271421023532636611e-06 1.362426699605460045e-06)
(5.885441359663599187e-03 3.091222523655203922e-06 1.296455930378368357e-06)
(5.851686748597474848e-03 2.942071938435689418e-06 1.075395432651578249e-06)
(5.815293385373944586e-03 2.668018805688806389e-06 8.628156238570121044e-07)
(5.788138731542024837e-03 2.374861381366727473e-06 8.230132405664806628e-07)
(5.760303474269191232e-03 2.096019147002013001e-06 9.132282064802704699e-07)
(5.736375077257866925e-03 1.741067909906332557e-06 1.029180365960875931e-06)
(5.722799478521081035e-03 1.298415781264633313e-06 8.893285413434880446e-07)
(5.709682325823509444e-03 9.321817544957624911e-07 6.116161470640901320e-07)
(5.701817569512185324e-03 6.003759251253640738e-07 3.894121550107557034e-07)
(5.699257699689053332e-03 1.566419502313225121e-07 4.476936601220722668e-07)
(5.702411133284137311e-03 -2.455890940282092278e-07 4.513257667385339021e-07)
(5.711431512594402141e-03 -6.752976512146228701e-07 6.947423604394067295e-07)
(5.726309536128511984e-03 -1.104141955631644735e-06 1.071437286950274795e-06)
(5.741554938956909028e-03 -1.520843816887948692e-06 1.253507404110306678e-06)
(5.768101224878057452e-03 -1.924681457736491274e-06 1.288504429790424785e-06)
(5.800173532224901785e-03 -2.315694805086427237e-06 1.200899987171893338e-06)
(5.833856462893137994e-03 -2.934088139241908225e-06 1.176274954425299539e-06)
(5.878780638565809721e-03 -3.328356148109362048e-06 9.280653991601817759e-07)
(5.925339312185194315e-03 -3.803700513993103946e-06 7.790142585153351888e-07)
(5.976871981065096269e-03 -4.081289485767273861e-06 3.904341045624055718e-07)
(6.034271279258591851e-03 -4.490258994157686332e-06 -7.116723156474978983e-08)
(6.101755032240557819e-03 -4.927615895076569879e-06 -5.276406038519635745e-07)
(6.169425616330021823e-03 -5.298534667169293763e-06 -1.134694774787414756e-06)
(6.242248619512751583e-03 -5.713738063745968084e-06 -1.812438602110079826e-06)
(6.314225305213260614e-03 -5.977154015165715938e-06 -2.524466545600278075e-06)
(6.396248140010806979e-03 -6.400796247143795093e-06 -3.159774125051852245e-06)
(6.481617891281672879e-03 -6.551743475586958828e-06 -3.627238909290860718e-06)
(6.564054506437884406e-03 -6.844883023288816457e-06 -3.920332535687321858e-06)
(6.655031913523410184e-03 -6.946517263870851460e-06 -4.101221303099364266e-06)
(6.743731794526940104e-03 -7.152331818654269550e-06 -4.241895447804871983e-06)
(6.833524644598232105e-03 -7.323927038063975041e-06 -4.380721079104506248e-06)
(6.923553200661042295e-03 -7.465190532999398157e-06 -4.553484267991581980e-06)
(7.016131852767278770e-03 -7.465282086508701669e-06 -4.681817873590194497e-06)
(7.110772592899627410e-03 -7.488874799475299146e-06 -4.869216983773682636e-06)
(7.197741736411523462e-03 -7.618313900557996926e-06 -5.054999256487752636e-06)
(7.289263992579251249e-03 -7.530137959105433860e-06 -5.121258890759944564e-06)
(7.375027965499998672e-03 -7.505628268498607030e-06 -5.103289334719809841e-06)
(7.465550320642572006e-03 -7.381753004163658180e-06 -5.003624360028110589e-06)
(7.547658191509053031e-03 -7.340535973681161246e-06 -4.820275015544405794e-06)
(7.628222376106764263e-03 -7.107439073959880276e-06 -4.661660077138394704e-06)
(7.706690570236686411e-03 -7.043240352200172113e-06 -4.556255857111335880e-06)
(7.775666867006095911e-03 -6.791930693533752296e-06 -4.456188200665235295e-06)
(7.848663732305204838e-03 -6.639644228653474755e-06 -4.330348811642608318e-06)
(7.912962865846402336e-03 -6.449478984804228811e-06 -4.171198336823882558e-06)
(7.979026126132398103e-03 -6.181818689086323852e-06 -4.013318275558204542e-06)
(8.034343641905344197e-03 -5.951982057928632251e-06 -3.897788803937568398e-06)
(8.093402565915772118e-03 -5.680991142957962669e-06 -3.807420139989435343e-06)
(8.141061687457991358e-03 -5.388451872728384027e-06 -3.701408841863337094e-06)
(8.184028159119925011e-03 -5.063525457440583562e-06 -3.561556435771895582e-06)
(8.220504175278822712e-03 -4.695812486137117460e-06 -3.348809274780077529e-06)
(8.252197382609747014e-03 -4.269999742875907351e-06 -3.034433193606717560e-06)
(8.284991841461990594e-03 -3.839337684088562095e-06 -2.700307707411694764e-06)
(8.303569351512392338e-03 -3.377630361594712827e-06 -2.401847970188622986e-06)
(8.314938271249735363e-03 -2.867536252899288392e-06 -2.153133211848485250e-06)
(8.326095513999865610e-03 -2.329059841526295641e-06 -1.882140830319074172e-06)
(8.329061829498513730e-03 -1.787873148976136087e-06 -1.571903292535135740e-06)
(8.331220639558486324e-03 -1.183925311783187017e-06 -1.275459880400157901e-06)
(8.331977196655052445e-03 -5.400515233092238176e-07 -9.817470763531101892e-07)
(8.323527594516627603e-03 4.731931017324458966e-08 -6.950131933500175353e-07)
(1.139223574318336957e-02 1.889031813409182698e-06 -4.192906802329837934e-07)
(1.136890314841873181e-02 3.187302011564647570e-06 -8.873668195217983545e-08)
(1.135346400580421883e-02 4.421509255682515586e-06 2.451694745557752838e-07)
(1.132669406463956627e-02 5.599877918989082171e-06 6.616154012893338660e-07)
(1.129393450298846191e-02 6.810634855155236975e-06 1.042208426886932455e-06)
(1.125085946546715808e-02 7.930604717403883091e-06 1.371270407725986874e-06)
(1.120978480196129293e-02 9.035866531308951028e-06 1.692957576508190951e-06)
(1.115306741960776088e-02 1.009757873186627132e-05 1.940849917547920026e-06)
(1.109121212575421220e-02 1.113875255241462328e-05 2.051711726236979656e-06)
(1.101769151890751031e-02 1.193910380419624864e-05 2.187142328023767754e-06)
(1.094456735604037653e-02 1.273949929650717935e-05 2.499422581268166200e-06)
(1.086194514277397799e-02 1.349859616915472306e-05 2.929821818496016184e-06)
(1.077619393250737675e-02 1.408898145238538238e-05 3.351225377348213800e-06)
(1.068552268898802227e-02 1.458805498351006122e-05 3.791385980363731399e-06)
(1.059161855130451128e-02 1.488400729479048558e-05 4.179502958868735096e-06)
(1.049211708712718960e-02 1.502785313946875575e-05 4.551457730293658003e-06)
(1.039156884168362764e-02 1.518286279754471458e-05 4.922072548022446168e-06)
(1.028928601188523057e-02 1.517759223160479470e-05 5.204572264968917895e-06)
(1.019193199635899660e-02 1.512983610708971199e-05 5.424943486766696025e-06)
(1.009280105158552772e-02 1.496426395751670157e-05 5.748641123931480115e-06)
(9.993585110190925103e-03 1.468150156362230559e-05 6.098896986460556414e-06)
(9.895777902790763719e-03 1.437427110899678199e-05 6.493755829959613948e-06)
(9.802194167768771282e-03 1.400964179008044172e-05 6.923870600246581428e-06)
(9.712297788010700039e-03 1.367445304710215105e-05 7.285542373865985555e-06)
(9.620058932857632195e-03 1.327911343383949305e-05 7.643752876629265999e-06)
(9.532285222531747954e-03 1.281123900958453722e-05 7.805784338426262998e-06)
(9.448781947569283302e-03 1.242509108136704139e-05 7.937362066333181947e-06)
(9.364439821707998962e-03 1.194760927035961009e-05 8.154678438118139033e-06)
(9.290344759682689010e-03 1.152169543484727722e-05 8.229955472119065963e-06)
(9.214552716942568666e-03 1.113575767040792613e-05 8.135461711175755940e-06)
(9.137526444201429093e-03 1.071368210576813628e-05 7.658708965972780341e-06)
(9.069786604719048961e-03 1.030374314521706854e-05 6.803855391633073116e-06)
(9.000611629301749975e-03 9.940011835883076277e-06 5.999617911676948286e-06)
(8.934774345856644900e-03 9.652621198580656065e-06 5.431373476689102939e-06)
(8.872171613816955474e-03 9.353578406397877976e-06 4.971932871207211481e-06)
(8.808514289100432756e-03 8.849404525707825340e-06 4.369736908197746947e-06)
(8.753771144094238746e-03 8.222787161937164643e-06 3.597658909320895258e-06)
(8.700128780381450114e-03 7.660808939369489234e-06 2.811704342397699319e-06)
(8.651076142231038310e-03 7.079498097777898883e-06 2.328001716702262171e-06)
(8.602285664736610687e-03 6.464924280887078671e-06 2.358962769273632016e-06)
(8.563465203173971710e-03 6.042833312106741938e-06 2.264865181497423400e-06)
(8.523825069056634174e-03 5.682725373377305171e-06 1.988610907565808452e-06)
(8.488362393579390597e-03 5.154491719028424391e-06 1.809198291621490542e-06)
(8.458074721413307018e-03 4.512251260443763731e-06 1.860346753544890240e-06)
(8.433828722459291161e-03 3.885772118245112700e-06 1.860959762446854553e-06)
(8.415089412303655356e-03 3.189821799291479627e-06 1.831049751923418456e-06)
(8.402666503970009429e-03 2.290169336143349579e-06 1.478515382924463628e-06)
(8.392641157186188708e-03 1.519776632066781539e-06 1.011176005335166325e-06)
(8.390225332874987410e-03 7.320947962511180776e-07 5.588634152431387060e-07)
(8.395140685927978200e-03 -1.077202592463653967e-07 3.507129443607898000e-07)
(8.407342238909423435e-03 -1.002620901880292384e-06 2.375635711090294998e-07)
(8.427577844768864568e-03 -1.881844204897209245e-06 5.361660296658970270e-07)
(8.455497191293749257e-03 -2.770711771562674277e-06 1.010389315718328607e-06)
(8.485642378254892523e-03 -3.592755318075491442e-06 1.191911994986565602e-06)
(8.523889632375641207e-03 -4.473359319649281823e-06 1.160569830652255591e-06)
(8.570798665074673417e-03 -5.455473535627835153e-06 1.027738316491808289e-06)
(8.625037374580667160e-03 -6.448455989330281528e-06 9.318814708058878348e-07)
(8.687544728760095841e-03 -7.461311819118256627e-06 7.903583097064378111e-07)
(8.758105541613929457e-03 -8.332982170918391238e-06 6.218182256715707725e-07)
(8.831262105696791043e-03 -9.094979442481569489e-06 1.645395342127574644e-07)
(8.915978022924112012e-03 -9.842825025519881353e-06 -4.042946741891651584e-07)
(9.000699783136615478e-03 -1.068038694512155497e-05 -9.543519619664426087e-07)
(9.093249329053554667e-03 -1.141359810433165340e-05 -1.678566581755116440e-06)
(9.188290465787785077e-03 -1.215130565643009051e-05 -2.591969023300479741e-06)
(9.293059192366307994e-03 -1.291865498051669627e-05 -3.632952740824857912e-06)
(9.397170199188628961e-03 -1.343306214700489351e-05 -4.592108751342549149e-06)
(9.504824541973284219e-03 -1.396359556338836854e-05 -5.383927229423583194e-06)
(9.617432543679671139e-03 -1.438381816865087206e-05 -5.966054231842704641e-06)
(9.727586907346871120e-03 -1.472327572869571916e-05 -6.293378155847684548e-06)
(9.844658173836550244e-03 -1.496818547239355515e-05 -6.516332251404068569e-06)
(9.958277983105910669e-03 -1.529110096623672064e-05 -6.671640423884999919e-06)
(1.006805618276789167e-02 -1.539055654880078919e-05 -6.870144602980315586e-06)
(1.018620895640455319e-02 -1.548936285852350536e-05 -6.995110748534701170e-06)
(1.029502059223647362e-02 -1.551687804996272656e-05 -7.153729720978330709e-06)
(1.040611244223815790e-02 -1.548405857174117275e-05 -7.363229904891851288e-06)
(1.051436567497881017e-02 -1.541564790204695163e-05 -7.447741028951573789e-06)
(1.061471434905779387e-02 -1.522520843571419673e-05 -7.415608706674843662e-06)