/*--------------------------------*- C++ -*----------------------------------*\
| =========                 |                                                 |
| \\      /  F ield         | OpenFOAM: The Open Source CFD Toolbox           |
|  \\    /   O peration     | Version:  2.3.x                                 |
|   \\  /    A nd           | Web:      www.OpenFOAM.org                      |
|    \\/     M anipulation  |                                                 |
\*---------------------------------------------------------------------------*/
FoamFile
{
    version     2.0;
    format      ascii;
    class       volScalarField;
    location    "0";
    object      V;
}
// * * * * * * * * * * * * * * * * * * * * * * * * * * * * * * * * * * * * * //

dimensions      [0 3 0 0 0 0 0];

internalField   nonuniform List<scalar> 
14751
(
3.32582e-05
3.32682e-05
3.32733e-05
3.32722e-05
3.32644e-05
3.32587e-05
3.32552e-05
3.32537e-05
3.3254e-05
3.32545e-05
3.32545e-05
3.32541e-05
3.32533e-05
3.32528e-05
3.32523e-05
3.32519e-05
3.32512e-05
3.32507e-05
3.32501e-05
3.32498e-05
3.32497e-05
3.32496e-05
3.32494e-05
3.32493e-05
3.32491e-05
3.3249e-05
3.32488e-05
3.32485e-05
3.3248e-05
3.32475e-05
3.32469e-05
3.32464e-05
3.32459e-05
3.32456e-05
3.32452e-05
3.32458e-05
3.32476e-05
3.32494e-05
3.32509e-05
3.3252e-05
3.32529e-05
3.32537e-05
3.32545e-05
3.3255e-05
3.32554e-05
3.32557e-05
3.32561e-05
3.32564e-05
3.32567e-05
3.3257e-05
3.32572e-05
3.32573e-05
3.32571e-05
3.32569e-05
3.32566e-05
3.32564e-05
3.32562e-05
3.32559e-05
3.32557e-05
3.32553e-05
3.32548e-05
3.32543e-05
3.32537e-05
3.3253e-05
3.3252e-05
3.3251e-05
3.32497e-05
3.32488e-05
3.32485e-05
3.32481e-05
3.32476e-05
3.32472e-05
3.32469e-05
3.32466e-05
3.32464e-05
3.3246e-05
3.32455e-05
3.32451e-05
3.32447e-05
3.32444e-05
3.32442e-05
3.32439e-05
3.32438e-05
3.32436e-05
3.32437e-05
3.32437e-05
3.32439e-05
3.3244e-05
3.32441e-05
3.32443e-05
3.32445e-05
3.32449e-05
3.32454e-05
3.32461e-05
3.32464e-05
3.32472e-05
3.32477e-05
3.32483e-05
3.32494e-05
3.47364e-05
3.47761e-05
3.48871e-05
3.50013e-05
3.51136e-05
3.52498e-05
3.54012e-05
3.55579e-05
3.57138e-05
3.58721e-05
3.60332e-05
3.6197e-05
3.63601e-05
3.65206e-05
3.66757e-05
3.68277e-05
3.69751e-05
3.71169e-05
3.72532e-05
3.73842e-05
3.75122e-05
3.76361e-05
3.77546e-05
3.78674e-05
3.79745e-05
3.80757e-05
3.81711e-05
3.82607e-05
3.83448e-05
3.84233e-05
3.84966e-05
3.85647e-05
3.86279e-05
3.86864e-05
3.87401e-05
3.87899e-05
3.8836e-05
3.88778e-05
3.89157e-05
3.89497e-05
3.89799e-05
3.90067e-05
3.90302e-05
3.90502e-05
3.90668e-05
3.90803e-05
3.90909e-05
3.90985e-05
3.91032e-05
3.9105e-05
3.91038e-05
3.90994e-05
3.90919e-05
3.90813e-05
3.90677e-05
3.9051e-05
3.90312e-05
3.90081e-05
3.89817e-05
3.89517e-05
3.89178e-05
3.88802e-05
3.88388e-05
3.87932e-05
3.87433e-05
3.8689e-05
3.863e-05
3.85665e-05
3.84982e-05
3.84247e-05
3.83458e-05
3.82616e-05
3.81717e-05
3.80762e-05
3.79749e-05
3.7868e-05
3.77553e-05
3.76367e-05
3.75123e-05
3.73826e-05
3.72472e-05
3.71065e-05
3.69614e-05
3.68125e-05
3.66605e-05
3.65042e-05
3.63435e-05
3.61787e-05
3.6013e-05
3.58461e-05
3.56792e-05
3.55134e-05
3.53515e-05
3.51955e-05
3.5053e-05
3.49247e-05
3.48226e-05
3.47627e-05
3.47416e-05
3.62743e-05
3.63283e-05
3.65129e-05
3.67162e-05
3.69276e-05
3.71782e-05
3.74525e-05
3.77348e-05
3.80154e-05
3.83009e-05
3.85923e-05
3.88892e-05
3.91852e-05
3.94765e-05
3.97584e-05
4.0035e-05
4.03044e-05
4.05641e-05
4.08149e-05
4.1057e-05
4.12939e-05
4.15237e-05
4.1744e-05
4.19545e-05
4.21545e-05
4.2344e-05
4.25228e-05
4.26912e-05
4.28496e-05
4.29978e-05
4.31363e-05
4.32652e-05
4.3385e-05
4.34958e-05
4.35978e-05
4.36918e-05
4.37781e-05
4.38566e-05
4.39277e-05
4.39916e-05
4.40487e-05
4.40992e-05
4.41434e-05
4.41811e-05
4.42125e-05
4.42381e-05
4.42581e-05
4.42724e-05
4.42811e-05
4.42844e-05
4.4282e-05
4.42736e-05
4.42593e-05
4.42392e-05
4.42135e-05
4.41818e-05
4.41441e-05
4.41004e-05
4.40502e-05
4.39933e-05
4.39293e-05
4.38582e-05
4.37798e-05
4.36937e-05
4.35996e-05
4.34973e-05
4.33864e-05
4.32668e-05
4.31381e-05
4.29997e-05
4.28515e-05
4.26933e-05
4.25248e-05
4.2346e-05
4.21566e-05
4.19571e-05
4.17474e-05
4.1527e-05
4.12964e-05
4.10565e-05
4.08067e-05
4.0548e-05
4.02824e-05
4.00108e-05
3.97343e-05
3.94509e-05
3.91599e-05
3.88621e-05
3.85629e-05
3.82622e-05
3.79627e-05
3.76663e-05
3.73777e-05
3.70997e-05
3.68455e-05
3.66154e-05
3.64329e-05
3.63264e-05
3.62917e-05
3.78807e-05
3.795e-05
3.81965e-05
3.84719e-05
3.87585e-05
3.90967e-05
3.94651e-05
3.98439e-05
4.02218e-05
4.06075e-05
4.10025e-05
4.14056e-05
4.18078e-05
4.22033e-05
4.25866e-05
4.29631e-05
4.33309e-05
4.36866e-05
4.40316e-05
4.43656e-05
4.46929e-05
4.50108e-05
4.53161e-05
4.56082e-05
4.58862e-05
4.61498e-05
4.6399e-05
4.66341e-05
4.68555e-05
4.70629e-05
4.7257e-05
4.74378e-05
4.76058e-05
4.77615e-05
4.79049e-05
4.80366e-05
4.81572e-05
4.82668e-05
4.83662e-05
4.84557e-05
4.85357e-05
4.86065e-05
4.86684e-05
4.87213e-05
4.87655e-05
4.88014e-05
4.88294e-05
4.88495e-05
4.88616e-05
4.88661e-05
4.88625e-05
4.88507e-05
4.88307e-05
4.88025e-05
4.87662e-05
4.87217e-05
4.86687e-05
4.86071e-05
4.85366e-05
4.84566e-05
4.83667e-05
4.82669e-05
4.81569e-05
4.80363e-05
4.79045e-05
4.77613e-05
4.76063e-05
4.7439e-05
4.72588e-05
4.70654e-05
4.68583e-05
4.66375e-05
4.64027e-05
4.61536e-05
4.58902e-05
4.56133e-05
4.53223e-05
4.50173e-05
4.46983e-05
4.43672e-05
4.40228e-05
4.36675e-05
4.33041e-05
4.29337e-05
4.25574e-05
4.21727e-05
4.17776e-05
4.13735e-05
4.09675e-05
4.05602e-05
4.01555e-05
3.97564e-05
3.93688e-05
3.8995e-05
3.86521e-05
3.83399e-05
3.80929e-05
3.79505e-05
3.79054e-05
3.95595e-05
3.96398e-05
3.99225e-05
4.02528e-05
4.06043e-05
4.1016e-05
4.1461e-05
4.19183e-05
4.23763e-05
4.28447e-05
4.33254e-05
4.38156e-05
4.43041e-05
4.47837e-05
4.52484e-05
4.57048e-05
4.61516e-05
4.65846e-05
4.70064e-05
4.74162e-05
4.78179e-05
4.82085e-05
4.85842e-05
4.89438e-05
4.92866e-05
4.96119e-05
4.99197e-05
5.02102e-05
5.04841e-05
5.07408e-05
5.09811e-05
5.12052e-05
5.14136e-05
5.16067e-05
5.17847e-05
5.19483e-05
5.20981e-05
5.22344e-05
5.23581e-05
5.24695e-05
5.2569e-05
5.26571e-05
5.27341e-05
5.28e-05
5.2855e-05
5.28998e-05
5.29347e-05
5.29597e-05
5.29748e-05
5.29803e-05
5.29759e-05
5.29612e-05
5.29362e-05
5.29011e-05
5.2856e-05
5.28005e-05
5.27345e-05
5.26579e-05
5.25701e-05
5.24706e-05
5.23588e-05
5.22347e-05
5.20979e-05
5.1948e-05
5.17842e-05
5.16065e-05
5.1414e-05
5.12065e-05
5.09832e-05
5.07435e-05
5.04872e-05
5.02141e-05
4.99238e-05
4.96162e-05
4.92912e-05
4.89498e-05
4.85914e-05
4.8216e-05
4.78239e-05
4.74173e-05
4.69949e-05
4.65605e-05
4.6118e-05
4.56682e-05
4.52119e-05
4.47463e-05
4.42676e-05
4.37778e-05
4.3285e-05
4.27909e-05
4.23011e-05
4.18196e-05
4.13528e-05
4.09016e-05
4.04861e-05
4.01053e-05
3.98047e-05
3.96338e-05
3.95824e-05
4.13111e-05
4.14043e-05
4.17131e-05
4.20888e-05
4.2494e-05
4.29657e-05
4.34721e-05
4.3992e-05
4.45154e-05
4.50518e-05
4.56032e-05
4.61651e-05
4.67241e-05
4.72715e-05
4.78018e-05
4.83222e-05
4.8833e-05
4.9329e-05
4.98143e-05
5.02874e-05
5.07511e-05
5.12023e-05
5.16366e-05
5.20527e-05
5.24495e-05
5.28264e-05
5.31833e-05
5.35203e-05
5.38382e-05
5.41364e-05
5.44157e-05
5.46762e-05
5.49186e-05
5.51432e-05
5.53505e-05
5.55408e-05
5.57151e-05
5.58737e-05
5.60176e-05
5.61472e-05
5.62631e-05
5.63658e-05
5.64554e-05
5.65321e-05
5.65963e-05
5.66484e-05
5.66891e-05
5.67182e-05
5.67358e-05
5.67422e-05
5.67369e-05
5.67198e-05
5.66907e-05
5.66498e-05
5.65972e-05
5.65325e-05
5.64556e-05
5.63663e-05
5.6264e-05
5.6148e-05
5.60179e-05
5.58734e-05
5.57141e-05
5.55397e-05
5.53492e-05
5.51425e-05
5.49186e-05
5.46774e-05
5.44179e-05
5.41395e-05
5.38419e-05
5.3525e-05
5.31883e-05
5.28317e-05
5.24552e-05
5.206e-05
5.16453e-05
5.12114e-05
5.07585e-05
5.02892e-05
4.98019e-05
4.93025e-05
4.87956e-05
4.82819e-05
4.77614e-05
4.72309e-05
4.66845e-05
4.61249e-05
4.55605e-05
4.49948e-05
4.44351e-05
4.38864e-05
4.33552e-05
4.28402e-05
4.23633e-05
4.19226e-05
4.15751e-05
4.13799e-05
4.13248e-05
4.31367e-05
4.32439e-05
4.35692e-05
4.39831e-05
4.44351e-05
4.49585e-05
4.55164e-05
4.60886e-05
4.66676e-05
4.72623e-05
4.78747e-05
4.84978e-05
4.91165e-05
4.97202e-05
5.03046e-05
5.08773e-05
5.14406e-05
5.19888e-05
5.25276e-05
5.30545e-05
5.35709e-05
5.40736e-05
5.45577e-05
5.50216e-05
5.54645e-05
5.58852e-05
5.62838e-05
5.66604e-05
5.70157e-05
5.73492e-05
5.76616e-05
5.7953e-05
5.82244e-05
5.84759e-05
5.87079e-05
5.89212e-05
5.91164e-05
5.92942e-05
5.94555e-05
5.96008e-05
5.97306e-05
5.98457e-05
5.99462e-05
6.00323e-05
6.01042e-05
6.01627e-05
6.02083e-05
6.02409e-05
6.02607e-05
6.02678e-05
6.02619e-05
6.02427e-05
6.02101e-05
6.01642e-05
6.01052e-05
6.00326e-05
5.99464e-05
5.98462e-05
5.97315e-05
5.96015e-05
5.94556e-05
5.92937e-05
5.91152e-05
5.89197e-05
5.87064e-05
5.84749e-05
5.82242e-05
5.79542e-05
5.76638e-05
5.73525e-05
5.70196e-05
5.66654e-05
5.62891e-05
5.58909e-05
5.54705e-05
5.50295e-05
5.45669e-05
5.40832e-05
5.35786e-05
5.30559e-05
5.25135e-05
5.19593e-05
5.13992e-05
5.0833e-05
5.02597e-05
4.96762e-05
4.90736e-05
4.84556e-05
4.78301e-05
4.72031e-05
4.65838e-05
4.59782e-05
4.53929e-05
4.48231e-05
4.4292e-05
4.37971e-05
4.34071e-05
4.31908e-05
4.31343e-05
4.50365e-05
4.51543e-05
4.54799e-05
4.5925e-05
4.64244e-05
4.69969e-05
4.7601e-05
4.82194e-05
4.88479e-05
4.94948e-05
5.01615e-05
5.08386e-05
5.15087e-05
5.21602e-05
5.27899e-05
5.34061e-05
5.40133e-05
5.46057e-05
5.51907e-05
5.5765e-05
5.63273e-05
5.68748e-05
5.74023e-05
5.79079e-05
5.83909e-05
5.88499e-05
5.92849e-05
5.96959e-05
6.0084e-05
6.04483e-05
6.07897e-05
6.11082e-05
6.14048e-05
6.16798e-05
6.19336e-05
6.21668e-05
6.23804e-05
6.25749e-05
6.27514e-05
6.29104e-05
6.30525e-05
6.31784e-05
6.32884e-05
6.33825e-05
6.34613e-05
6.35254e-05
6.35753e-05
6.3611e-05
6.36326e-05
6.36403e-05
6.36338e-05
6.36128e-05
6.35771e-05
6.35269e-05
6.34623e-05
6.33829e-05
6.32885e-05
6.31788e-05
6.30532e-05
6.2911e-05
6.27514e-05
6.25742e-05
6.2379e-05
6.21652e-05
6.19318e-05
6.16786e-05
6.14046e-05
6.11095e-05
6.0792e-05
6.04519e-05
6.00883e-05
5.97015e-05
5.92907e-05
5.88561e-05
5.83975e-05
5.79167e-05
5.74123e-05
5.68852e-05
5.63355e-05
5.57664e-05
5.51761e-05
5.45747e-05
5.39696e-05
5.33596e-05
5.27425e-05
5.21148e-05
5.14648e-05
5.07967e-05
5.01181e-05
4.94373e-05
4.87661e-05
4.81114e-05
4.74794e-05
4.68613e-05
4.62808e-05
4.57348e-05
4.53048e-05
4.5069e-05
4.50127e-05
4.70099e-05
4.71428e-05
4.74735e-05
4.79498e-05
4.84903e-05
4.91056e-05
4.97497e-05
5.04074e-05
5.10797e-05
5.17732e-05
5.24892e-05
5.32149e-05
5.39309e-05
5.46239e-05
5.52926e-05
5.59458e-05
5.65908e-05
5.72216e-05
5.78478e-05
5.84647e-05
5.90683e-05
5.9656e-05
6.02223e-05
6.07654e-05
6.12843e-05
6.17776e-05
6.22453e-05
6.26872e-05
6.31046e-05
6.34965e-05
6.38638e-05
6.42066e-05
6.45258e-05
6.48218e-05
6.50951e-05
6.53462e-05
6.55763e-05
6.57859e-05
6.59761e-05
6.61473e-05
6.63005e-05
6.64362e-05
6.65546e-05
6.66561e-05
6.67411e-05
6.68101e-05
6.68638e-05
6.69023e-05
6.69256e-05
6.69339e-05
6.69268e-05
6.69042e-05
6.68657e-05
6.68116e-05
6.6742e-05
6.66565e-05
6.65548e-05
6.64366e-05
6.63012e-05
6.61479e-05
6.5976e-05
6.57851e-05
6.55748e-05
6.53445e-05
6.50933e-05
6.48206e-05
6.45255e-05
6.42078e-05
6.38662e-05
6.35002e-05
6.3109e-05
6.2693e-05
6.22512e-05
6.1784e-05
6.12911e-05
6.07744e-05
6.02325e-05
5.96665e-05
5.90763e-05
5.84653e-05
5.78319e-05
5.71887e-05
5.65445e-05
5.58968e-05
5.5242e-05
5.45766e-05
5.38852e-05
5.31725e-05
5.24457e-05
5.17159e-05
5.09975e-05
5.02987e-05
4.96248e-05
4.89625e-05
4.83352e-05
4.77396e-05
4.72704e-05
4.70165e-05
4.69617e-05
4.90558e-05
4.91928e-05
4.95074e-05
5.00096e-05
5.06003e-05
5.12634e-05
5.19486e-05
5.26458e-05
5.33616e-05
5.41011e-05
5.4865e-05
5.56369e-05
5.63955e-05
5.71259e-05
5.78291e-05
5.85147e-05
5.9193e-05
5.98581e-05
6.05219e-05
6.11785e-05
6.18203e-05
6.2445e-05
6.30472e-05
6.36248e-05
6.41769e-05
6.47018e-05
6.51997e-05
6.56701e-05
6.61146e-05
6.6532e-05
6.69232e-05
6.72884e-05
6.76286e-05
6.7944e-05
6.82353e-05
6.85031e-05
6.87484e-05
6.8972e-05
6.91749e-05
6.93576e-05
6.9521e-05
6.96657e-05
6.9792e-05
6.99003e-05
6.99909e-05
7.00646e-05
7.0122e-05
7.0163e-05
7.01878e-05
7.01966e-05
7.01891e-05
7.01649e-05
7.01239e-05
7.00662e-05
6.9992e-05
6.99008e-05
6.97923e-05
6.96662e-05
6.95218e-05
6.93583e-05
6.9175e-05
6.89714e-05
6.87472e-05
6.85017e-05
6.82337e-05
6.7943e-05
6.76285e-05
6.72899e-05
6.69258e-05
6.65359e-05
6.61193e-05
6.56763e-05
6.52059e-05
6.47086e-05
6.4184e-05
6.36343e-05
6.30578e-05
6.24557e-05
6.18281e-05
6.11786e-05
6.05054e-05
5.98241e-05
5.91452e-05
5.84644e-05
5.77768e-05
5.70785e-05
5.63502e-05
5.55973e-05
5.48257e-05
5.40502e-05
5.32881e-05
5.25487e-05
5.18366e-05
5.11327e-05
5.04599e-05
4.98147e-05
4.93063e-05
4.90347e-05
4.89828e-05
5.11714e-05
5.13159e-05
5.16306e-05
5.21648e-05
5.28009e-05
5.35073e-05
5.42297e-05
5.49618e-05
5.57171e-05
5.64992e-05
5.73082e-05
5.81237e-05
5.89218e-05
5.96863e-05
6.04205e-05
6.11348e-05
6.18431e-05
6.25397e-05
6.32388e-05
6.39333e-05
6.46114e-05
6.52712e-05
6.59074e-05
6.65177e-05
6.71012e-05
6.7656e-05
6.81825e-05
6.868e-05
6.915e-05
6.95916e-05
7.00056e-05
7.03919e-05
7.07519e-05
7.10857e-05
7.13941e-05
7.16775e-05
7.19373e-05
7.21741e-05
7.23889e-05
7.25824e-05
7.27554e-05
7.29086e-05
7.30425e-05
7.31571e-05
7.32531e-05
7.33312e-05
7.33919e-05
7.34353e-05
7.34616e-05
7.34709e-05
7.34628e-05
7.34372e-05
7.33938e-05
7.33328e-05
7.32542e-05
7.31576e-05
7.30427e-05
7.29092e-05
7.27562e-05
7.25831e-05
7.2389e-05
7.21735e-05
7.19361e-05
7.16761e-05
7.13924e-05
7.10847e-05
7.07518e-05
7.03935e-05
7.00082e-05
6.95957e-05
6.91549e-05
6.86864e-05
6.81888e-05
6.7663e-05
6.71085e-05
6.65274e-05
6.5918e-05
6.52819e-05
6.46188e-05
6.39327e-05
6.32217e-05
6.25048e-05
6.17939e-05
6.10835e-05
6.03664e-05
5.96385e-05
5.88764e-05
5.80857e-05
5.72715e-05
5.64519e-05
5.56479e-05
5.48701e-05
5.41218e-05
5.33776e-05
5.26593e-05
5.19636e-05
5.14148e-05
5.11255e-05
5.10776e-05
5.33557e-05
5.34905e-05
5.37847e-05
5.43483e-05
5.50443e-05
5.58039e-05
5.65691e-05
5.73396e-05
5.81369e-05
5.89635e-05
5.98187e-05
6.06779e-05
6.15147e-05
6.23115e-05
6.30745e-05
6.38151e-05
6.45509e-05
6.5277e-05
6.601e-05
6.67414e-05
6.74547e-05
6.81486e-05
6.88177e-05
6.94596e-05
7.00735e-05
7.06573e-05
7.12116e-05
7.17352e-05
7.22301e-05
7.26951e-05
7.31311e-05
7.3538e-05
7.39172e-05
7.42689e-05
7.45939e-05
7.48925e-05
7.51663e-05
7.54159e-05
7.56424e-05
7.58464e-05
7.60287e-05
7.61902e-05
7.63312e-05
7.64521e-05
7.65533e-05
7.66357e-05
7.66996e-05
7.67454e-05
7.6773e-05
7.67828e-05
7.67742e-05
7.67472e-05
7.67015e-05
7.66373e-05
7.65544e-05
7.64526e-05
7.63315e-05
7.61907e-05
7.60294e-05
7.5847e-05
7.56424e-05
7.54154e-05
7.51652e-05
7.48912e-05
7.45923e-05
7.4268e-05
7.39172e-05
7.35398e-05
7.3134e-05
7.26995e-05
7.22353e-05
7.17421e-05
7.12182e-05
7.06648e-05
7.00812e-05
6.94698e-05
6.88286e-05
6.81595e-05
6.74621e-05
6.67405e-05
6.59929e-05
6.52421e-05
6.45016e-05
6.37639e-05
6.30201e-05
6.22653e-05
6.14718e-05
6.06452e-05
5.97895e-05
5.8927e-05
5.80824e-05
5.72674e-05
5.64844e-05
5.57005e-05
5.49359e-05
5.41879e-05
5.35971e-05
5.32901e-05
5.32474e-05
5.56051e-05
5.57297e-05
5.60267e-05
5.66305e-05
5.73841e-05
5.81948e-05
5.90009e-05
5.98069e-05
6.06435e-05
6.15126e-05
6.24126e-05
6.33142e-05
6.41883e-05
6.50156e-05
6.5805e-05
6.65698e-05
6.73313e-05
6.80855e-05
6.88516e-05
6.96195e-05
7.03677e-05
7.10951e-05
7.17966e-05
7.24696e-05
7.31135e-05
7.3726e-05
7.43075e-05
7.48569e-05
7.53763e-05
7.58643e-05
7.6322e-05
7.67492e-05
7.71474e-05
7.75166e-05
7.78578e-05
7.81715e-05
7.84591e-05
7.87214e-05
7.89593e-05
7.91736e-05
7.93651e-05
7.95347e-05
7.96828e-05
7.98098e-05
7.99163e-05
8.00028e-05
8.007e-05
8.0118e-05
8.0147e-05
8.01572e-05
8.01482e-05
8.01198e-05
8.00719e-05
8.00044e-05
7.99174e-05
7.98104e-05
7.96832e-05
7.95353e-05
7.93658e-05
7.91741e-05
7.89593e-05
7.87208e-05
7.8458e-05
7.81702e-05
7.78563e-05
7.75157e-05
7.71474e-05
7.67511e-05
7.6325e-05
7.58689e-05
7.53816e-05
7.4864e-05
7.43143e-05
7.37335e-05
7.31213e-05
7.248e-05
7.18074e-05
7.11057e-05
7.03745e-05
6.96178e-05
6.88342e-05
6.80502e-05
6.72814e-05
6.65184e-05
6.57496e-05
6.49699e-05
6.41466e-05
6.32851e-05
6.23882e-05
6.14827e-05
6.05977e-05
5.97463e-05
5.89293e-05
5.81054e-05
5.72931e-05
5.64904e-05
5.58553e-05
5.55301e-05
5.54938e-05
5.79226e-05
5.80195e-05
5.8305e-05
5.89494e-05
5.97752e-05
6.06475e-05
6.15011e-05
6.2347e-05
6.32259e-05
6.414e-05
6.50866e-05
6.60319e-05
6.69433e-05
6.78004e-05
6.86149e-05
6.94024e-05
7.01881e-05
7.09695e-05
7.17682e-05
7.25727e-05
7.33557e-05
7.41166e-05
7.48505e-05
7.55546e-05
7.62284e-05
7.68695e-05
7.74783e-05
7.80534e-05
7.85973e-05
7.91084e-05
7.95878e-05
8.00353e-05
8.04524e-05
8.08392e-05
8.11968e-05
8.15254e-05
8.18269e-05
8.21019e-05
8.23513e-05
8.25759e-05
8.27767e-05
8.29544e-05
8.31097e-05
8.32428e-05
8.33544e-05
8.34451e-05
8.35155e-05
8.35659e-05
8.35963e-05
8.36068e-05
8.35973e-05
8.35676e-05
8.35173e-05
8.34467e-05
8.33555e-05
8.32435e-05
8.31101e-05
8.2955e-05
8.27774e-05
8.25765e-05
8.23513e-05
8.21014e-05
8.18261e-05
8.15245e-05
8.11955e-05
8.08385e-05
8.04526e-05
8.00374e-05
7.9591e-05
7.91133e-05
7.8603e-05
7.8061e-05
7.74854e-05
7.68774e-05
7.62366e-05
7.55655e-05
7.48615e-05
7.41273e-05
7.33622e-05
7.25706e-05
7.17511e-05
7.09345e-05
7.01385e-05
6.93516e-05
6.85597e-05
6.77568e-05
6.69049e-05
6.60091e-05
6.50712e-05
6.41225e-05
6.31971e-05
6.23095e-05
6.14588e-05
6.05945e-05
5.97325e-05
5.88721e-05
5.819e-05
5.78465e-05
5.7818e-05
6.0305e-05
6.03708e-05
6.06674e-05
6.13643e-05
6.22625e-05
6.31963e-05
6.40972e-05
6.49813e-05
6.59012e-05
6.68595e-05
6.78525e-05
6.88413e-05
6.97896e-05
7.06753e-05
7.15133e-05
7.23219e-05
7.31308e-05
7.39385e-05
7.47699e-05
7.56113e-05
7.64296e-05
7.72243e-05
7.79909e-05
7.87263e-05
7.94303e-05
8.01002e-05
8.07365e-05
8.13377e-05
8.19062e-05
8.24406e-05
8.29419e-05
8.34098e-05
8.38461e-05
8.42506e-05
8.46246e-05
8.49685e-05
8.52839e-05
8.55716e-05
8.58325e-05
8.60676e-05
8.62777e-05
8.64637e-05
8.66261e-05
8.67654e-05
8.68822e-05
8.69771e-05
8.70508e-05
8.71035e-05
8.71352e-05
8.71462e-05
8.71362e-05
8.71051e-05
8.70526e-05
8.69787e-05
8.68833e-05
8.67661e-05
8.66266e-05
8.64642e-05
8.62783e-05
8.60682e-05
8.58326e-05
8.55712e-05
8.52831e-05
8.49676e-05
8.46234e-05
8.425e-05
8.38464e-05
8.34121e-05
8.29453e-05
8.24457e-05
8.19122e-05
8.13455e-05
8.07438e-05
8.01084e-05
7.94387e-05
7.87374e-05
7.80017e-05
7.72347e-05
7.64355e-05
7.56086e-05
7.47528e-05
7.39036e-05
7.30812e-05
7.22714e-05
7.14577e-05
7.06328e-05
6.97533e-05
6.88234e-05
6.78439e-05
6.68513e-05
6.58851e-05
6.49609e-05
6.40765e-05
6.31707e-05
6.22566e-05
6.1335e-05
6.06025e-05
6.02399e-05
6.02206e-05
6.27566e-05
6.27781e-05
6.30829e-05
6.38368e-05
6.48179e-05
6.5821e-05
6.67741e-05
6.76996e-05
6.86625e-05
6.96669e-05
7.07082e-05
7.17416e-05
7.27271e-05
7.3641e-05
7.45013e-05
7.533e-05
7.61608e-05
7.69944e-05
7.78583e-05
7.87372e-05
7.95914e-05
8.04205e-05
8.12201e-05
8.19875e-05
8.27221e-05
8.34213e-05
8.40855e-05
8.47132e-05
8.53068e-05
8.58648e-05
8.63884e-05
8.68771e-05
8.73328e-05
8.77554e-05
8.81461e-05
8.85054e-05
8.88351e-05
8.91357e-05
8.94085e-05
8.96542e-05
8.98738e-05
9.00681e-05
9.02378e-05
9.03834e-05
9.05055e-05
9.06048e-05
9.06818e-05
9.07368e-05
9.07699e-05
9.07813e-05
9.07708e-05
9.07383e-05
9.06835e-05
9.06063e-05
9.05067e-05
9.03842e-05
9.02384e-05
9.00688e-05
8.98745e-05
8.96548e-05
8.94087e-05
8.91356e-05
8.88346e-05
8.85049e-05
8.81452e-05
8.77551e-05
8.73333e-05
8.68797e-05
8.63921e-05
8.58703e-05
8.53132e-05
8.47215e-05
8.40932e-05
8.34299e-05
8.27309e-05
8.19989e-05
8.12311e-05
8.04307e-05
7.95969e-05
7.87342e-05
7.78418e-05
7.69599e-05
7.61117e-05
7.52802e-05
7.4446e-05
7.36004e-05
7.26942e-05
7.17303e-05
7.07086e-05
6.96712e-05
6.86634e-05
6.77024e-05
6.67841e-05
6.58353e-05
6.48663e-05
6.38797e-05
6.30934e-05
6.27115e-05
6.27031e-05
6.5281e-05
6.52554e-05
6.55818e-05
6.64017e-05
6.74686e-05
6.85431e-05
6.95498e-05
7.05161e-05
7.15214e-05
7.25718e-05
7.36616e-05
7.47401e-05
7.57626e-05
7.6704e-05
7.75851e-05
7.84325e-05
7.92843e-05
8.01434e-05
8.10403e-05
8.19575e-05
8.28483e-05
8.37125e-05
8.4546e-05
8.53458e-05
8.61117e-05
8.68408e-05
8.75336e-05
8.81882e-05
8.88074e-05
8.93896e-05
8.99358e-05
9.04458e-05
9.09213e-05
9.13623e-05
9.17702e-05
9.21452e-05
9.24894e-05
9.28033e-05
9.30881e-05
9.33446e-05
9.35738e-05
9.37767e-05
9.39539e-05
9.41059e-05
9.42334e-05
9.43371e-05
9.44174e-05
9.44748e-05
9.45094e-05
9.45212e-05
9.45102e-05
9.44762e-05
9.4419e-05
9.43386e-05
9.42346e-05
9.41067e-05
9.39545e-05
9.37774e-05
9.35745e-05
9.33452e-05
9.30883e-05
9.28032e-05
9.2489e-05
9.21448e-05
9.17695e-05
9.13622e-05
9.09221e-05
9.04487e-05
8.99398e-05
8.93953e-05
8.8814e-05
8.81968e-05
8.75414e-05
8.68496e-05
8.61207e-05
8.53573e-05
8.45568e-05
8.37223e-05
8.28531e-05
8.19538e-05
8.10239e-05
8.01092e-05
7.92354e-05
7.83831e-05
7.75296e-05
7.66644e-05
7.57321e-05
7.4734e-05
7.36692e-05
7.25856e-05
7.15354e-05
7.05371e-05
6.95845e-05
6.85913e-05
6.75643e-05
6.65084e-05
6.56645e-05
6.52628e-05
6.52665e-05
6.78806e-05
6.78044e-05
6.81607e-05
6.90538e-05
7.02105e-05
7.13595e-05
7.2422e-05
7.34296e-05
7.44772e-05
7.5574e-05
7.6713e-05
7.78372e-05
7.88968e-05
7.98648e-05
8.07653e-05
8.16301e-05
8.25016e-05
8.33856e-05
8.43155e-05
8.52717e-05
8.62001e-05
8.71001e-05
8.79682e-05
8.88013e-05
8.95992e-05
9.03589e-05
9.10809e-05
9.17631e-05
9.24085e-05
9.30155e-05
9.3585e-05
9.41167e-05
9.46126e-05
9.50725e-05
9.54979e-05
9.5889e-05
9.62481e-05
9.65756e-05
9.68727e-05
9.71404e-05
9.73796e-05
9.75913e-05
9.7776e-05
9.79347e-05
9.80678e-05
9.8176e-05
9.82598e-05
9.83196e-05
9.83556e-05
9.83679e-05
9.83564e-05
9.83209e-05
9.82613e-05
9.81774e-05
9.8069e-05
9.79356e-05
9.77769e-05
9.7592e-05
9.73804e-05
9.71411e-05
9.68732e-05
9.65758e-05
9.62481e-05
9.5889e-05
9.54975e-05
9.50728e-05
9.46137e-05
9.412e-05
9.35893e-05
9.30217e-05
9.24157e-05
9.17722e-05
9.10892e-05
9.03681e-05
8.96085e-05
8.88132e-05
8.7979e-05
8.71097e-05
8.62043e-05
8.52678e-05
8.42996e-05
8.33516e-05
8.24529e-05
8.15806e-05
8.07092e-05
7.98257e-05
7.88681e-05
7.78355e-05
7.67268e-05
7.55957e-05
7.45019e-05
7.34657e-05
7.24781e-05
7.14387e-05
7.03501e-05
6.92202e-05
6.83145e-05
6.78926e-05
6.79108e-05
7.05638e-05
7.04362e-05
7.08223e-05
7.17927e-05
7.30442e-05
7.42715e-05
7.53919e-05
7.64413e-05
7.75316e-05
7.86754e-05
7.9865e-05
8.10359e-05
8.21327e-05
8.31267e-05
8.40451e-05
8.4926e-05
8.58163e-05
8.67249e-05
8.76882e-05
8.86845e-05
8.96514e-05
9.05883e-05
9.1492e-05
9.23592e-05
9.319e-05
9.3981e-05
9.47329e-05
9.54435e-05
9.61158e-05
9.67482e-05
9.73416e-05
9.78956e-05
9.84123e-05
9.88916e-05
9.9335e-05
9.97427e-05
0.000100117
0.000100458
0.000100768
0.000101047
0.000101297
0.000101517
0.00010171
0.000101875
0.000102014
0.000102127
0.000102214
0.000102277
0.000102314
0.000102327
0.000102315
0.000102278
0.000102216
0.000102128
0.000102015
0.000101876
0.000101711
0.000101518
0.000101297
0.000101048
0.000100769
0.000100459
0.000100117
9.9743e-05
9.93349e-05
9.88922e-05
9.84137e-05
9.78992e-05
9.73462e-05
9.67547e-05
9.61233e-05
9.5453e-05
9.47415e-05
9.39905e-05
9.31995e-05
9.23712e-05
9.15026e-05
9.05975e-05
8.9655e-05
8.86801e-05
8.76727e-05
8.6691e-05
8.57676e-05
8.48764e-05
8.39882e-05
8.30876e-05
8.21055e-05
8.10381e-05
7.98841e-05
7.87041e-05
7.75656e-05
7.64905e-05
7.54674e-05
7.43797e-05
7.32258e-05
7.20167e-05
7.10445e-05
7.06017e-05
7.06364e-05
7.33348e-05
7.31657e-05
7.35947e-05
7.46485e-05
7.59911e-05
7.72942e-05
7.84708e-05
7.95594e-05
8.06904e-05
8.18804e-05
8.31203e-05
8.43381e-05
8.54718e-05
8.64908e-05
8.74251e-05
8.83205e-05
8.92283e-05
9.01607e-05
9.11576e-05
9.21946e-05
9.32011e-05
9.41759e-05
9.5116e-05
9.60182e-05
9.68827e-05
9.77059e-05
9.84886e-05
9.92284e-05
9.99282e-05
0.000100587
0.000101205
0.000101782
0.00010232
0.000102819
0.000103281
0.000103706
0.000104095
0.000104451
0.000104774
0.000105065
0.000105325
0.000105555
0.000105755
0.000105928
0.000106072
0.00010619
0.000106281
0.000106346
0.000106385
0.000106398
0.000106385
0.000106347
0.000106282
0.000106191
0.000106074
0.000105929
0.000105757
0.000105556
0.000105326
0.000105066
0.000104775
0.000104452
0.000104096
0.000103706
0.000103281
0.00010282
0.000102322
0.000101786
0.00010121
0.000100594
9.99363e-05
9.92384e-05
9.84976e-05
9.77159e-05
9.68926e-05
9.60305e-05
9.51266e-05
9.41848e-05
9.32042e-05
9.21901e-05
9.11426e-05
9.01267e-05
8.91791e-05
8.827e-05
8.73666e-05
8.64503e-05
8.54445e-05
8.4342e-05
8.31418e-05
8.19112e-05
8.07269e-05
7.96122e-05
7.85529e-05
7.74148e-05
7.61917e-05
7.48981e-05
7.38551e-05
7.33917e-05
7.34447e-05
7.62026e-05
7.59959e-05
7.64529e-05
7.75879e-05
7.90283e-05
8.0412e-05
8.16476e-05
8.27764e-05
8.39489e-05
8.51864e-05
8.64784e-05
8.77444e-05
8.89152e-05
8.99584e-05
9.09071e-05
9.18155e-05
9.27396e-05
9.36954e-05
9.47264e-05
9.58053e-05
9.68525e-05
9.78662e-05
9.88439e-05
9.97821e-05
0.000100681
0.000101538
0.000102352
0.000103122
0.00010385
0.000104535
0.000105178
0.000105779
0.000106339
0.000106859
0.000107339
0.000107782
0.000108188
0.000108558
0.000108894
0.000109197
0.000109468
0.000109707
0.000109916
0.000110096
0.000110246
0.000110369
0.000110463
0.000110531
0.000110572
0.000110585
0.000110572
0.000110532
0.000110465
0.00011037
0.000110248
0.000110097
0.000109917
0.000109708
0.000109469
0.000109198
0.000108895
0.000108559
0.000108189
0.000107783
0.00010734
0.00010686
0.000106341
0.000105783
0.000105184
0.000104543
0.000103858
0.000103132
0.000102361
0.000101548
0.000100691
9.97946e-05
9.88543e-05
9.78747e-05
9.6855e-05
9.58005e-05
9.47117e-05
9.36612e-05
9.26899e-05
9.17639e-05
9.08468e-05
8.99162e-05
8.88875e-05
8.77496e-05
8.65018e-05
8.52189e-05
8.39874e-05
8.28321e-05
8.17358e-05
8.0545e-05
7.92481e-05
7.78639e-05
7.67445e-05
7.62594e-05
7.63336e-05
7.91649e-05
7.89364e-05
7.94339e-05
8.0655e-05
8.2187e-05
8.36471e-05
8.49384e-05
8.61038e-05
8.73151e-05
8.85985e-05
8.99424e-05
9.12568e-05
9.24642e-05
9.35302e-05
9.44911e-05
9.54106e-05
9.63494e-05
9.73276e-05
9.83926e-05
9.95144e-05
0.000100603
0.000101657
0.000102673
0.000103648
0.000104583
0.000105473
0.00010632
0.000107121
0.000107878
0.000108591
0.00010926
0.000109885
0.000110467
0.000111008
0.000111508
0.000111969
0.000112391
0.000112777
0.000113127
0.000113442
0.000113724
0.000113973
0.00011419
0.000114377
0.000114534
0.000114661
0.00011476
0.00011483
0.000114872
0.000114887
0.000114873
0.000114831
0.000114761
0.000114663
0.000114535
0.000114378
0.000114192
0.000113974
0.000113725
0.000113443
0.000113128
0.000112778
0.000112393
0.00011197
0.00011151
0.00011101
0.00011047
0.00010989
0.000109266
0.000108599
0.000107887
0.000107132
0.00010633
0.000105484
0.000104594
0.000103661
0.000102684
0.000101665
0.000100605
9.95096e-05
9.83785e-05
9.72929e-05
9.62984e-05
9.53569e-05
9.44278e-05
9.34848e-05
9.24343e-05
9.12607e-05
8.99641e-05
8.86272e-05
8.73471e-05
8.61504e-05
8.50163e-05
8.37702e-05
8.23952e-05
8.09145e-05
7.97139e-05
7.92073e-05
7.93049e-05
8.22302e-05
8.19865e-05
8.25012e-05
8.38025e-05
8.54344e-05
8.69768e-05
8.83272e-05
8.95306e-05
9.07817e-05
9.21126e-05
9.35102e-05
9.48743e-05
9.61186e-05
9.72065e-05
9.81777e-05
9.91064e-05
0.000100058
0.000101059
0.000102158
0.000103324
0.000104456
0.00010555
0.000106606
0.000107619
0.000108591
0.000109516
0.000110396
0.000111228
0.000112015
0.000112756
0.000113452
0.000114102
0.000114708
0.00011527
0.00011579
0.000116269
0.000116709
0.00011711
0.000117474
0.000117802
0.000118095
0.000118354
0.00011858
0.000118774
0.000118938
0.00011907
0.000119173
0.000119246
0.00011929
0.000119304
0.00011929
0.000119247
0.000119174
0.000119071
0.000118939
0.000118776
0.000118582
0.000118355
0.000118096
0.000117803
0.000117475
0.000117112
0.00011671
0.000116271
0.000115792
0.000115273
0.000114711
0.000114107
0.000113459
0.000112765
0.000112025
0.00011124
0.000110406
0.000109527
0.000108602
0.000107632
0.000106617
0.000105558
0.000104457
0.000103319
0.000102144
0.000101023
0.000100006
9.90504e-05
9.8111e-05
9.71574e-05
9.60861e-05
9.48766e-05
9.35298e-05
9.21371e-05
9.08071e-05
8.9568e-05
8.83953e-05
8.70914e-05
8.56333e-05
8.40494e-05
8.27617e-05
8.22332e-05
8.23569e-05
8.5392e-05
8.51476e-05
8.5683e-05
8.70664e-05
8.87953e-05
9.04181e-05
9.18261e-05
9.30648e-05
9.43539e-05
9.57317e-05
9.71835e-05
9.8598e-05
9.98787e-05
0.000100987
0.000101966
0.000102902
0.000103865
0.000104886
0.00010602
0.000107231
0.000108406
0.000109543
0.00011064
0.000111692
0.000112701
0.000113662
0.000114576
0.000115441
0.000116259
0.000117029
0.000117752
0.000118427
0.000119057
0.000119642
0.000120182
0.00012068
0.000121137
0.000121554
0.000121933
0.000122274
0.000122578
0.000122848
0.000123083
0.000123285
0.000123454
0.000123592
0.000123699
0.000123775
0.00012382
0.000123836
0.000123821
0.000123775
0.0001237
0.000123593
0.000123456
0.000123286
0.000123084
0.000122849
0.00012258
0.000122275
0.000121934
0.000121556
0.000121139
0.000120683
0.000120185
0.000119645
0.000119061
0.000118434
0.000117759
0.000117039
0.000116269
0.000115453
0.000114587
0.000113674
0.000112713
0.000111706
0.00011065
0.000109551
0.000108408
0.000107226
0.000106007
0.00010485
0.000103811
0.000102843
0.000101895
0.000100933
9.98422e-05
9.85967e-05
9.71984e-05
9.5748e-05
9.43665e-05
9.30839e-05
9.18717e-05
9.05071e-05
8.89607e-05
8.72665e-05
8.58859e-05
8.5335e-05
8.54883e-05
8.86445e-05
8.83995e-05
8.89389e-05
9.04025e-05
9.22389e-05
9.39499e-05
9.54198e-05
9.66959e-05
9.80246e-05
9.94513e-05
0.00010096
0.000102426
0.000103744
0.000104871
0.000105856
0.000106797
0.00010777
0.000108811
0.000109979
0.000111236
0.000112457
0.000113637
0.000114775
0.000115868
0.000116915
0.000117913
0.000118863
0.00011976
0.00012061
0.00012141
0.000122161
0.000122862
0.000123516
0.000124124
0.000124686
0.000125203
0.000125677
0.000126111
0.000126504
0.000126858
0.000127175
0.000127455
0.000127699
0.000127909
0.000128085
0.000128228
0.000128339
0.000128418
0.000128465
0.000128481
0.000128465
0.000128419
0.00012834
0.00012823
0.000128087
0.000127911
0.000127701
0.000127456
0.000127176
0.00012686
0.000126506
0.000126113
0.00012568
0.000125206
0.000124688
0.000124127
0.000123521
0.000122869
0.000122169
0.00012142
0.000120621
0.000119773