/*--------------------------------*- C++ -*----------------------------------*\
| =========                 |                                                 |
| \\      /  F ield         | OpenFOAM: The Open Source CFD Toolbox           |
|  \\    /   O peration     | Version:  2.1.1                                 |
|   \\  /    A nd           | Web:      www.OpenFOAM.org                      |
|    \\/     M anipulation  |                                                 |
\*---------------------------------------------------------------------------*/
FoamFile
{
    version     2.0;
    format      ascii;
    class       volSymmTensorField;
    location    "0";
    object      TauDNS;
}
// * * * * * * * * * * * * * * * * * * * * * * * * * * * * * * * * * * * * * //

dimensions      [0 2 -2 0 0 0 0];

internalField   nonuniform List<symmTensor> 
14751
(
(4.045681747877512513e-07 3.566090803858982312e-09 0.000000000000000000e+00 2.649791369445474257e-10 0.000000000000000000e+00 1.352702378761820566e-07)
(4.034799861489514975e-07 3.680163482562928583e-09 0.000000000000000000e+00 2.702418718773537079e-10 0.000000000000000000e+00 1.377076123670719451e-07)
(4.018837391376560426e-07 3.786133082694857349e-09 0.000000000000000000e+00 2.759472510512352155e-10 0.000000000000000000e+00 1.400106616539054747e-07)
(4.001043713414648847e-07 3.894003053838412658e-09 0.000000000000000000e+00 2.836265598153552560e-10 0.000000000000000000e+00 1.422062559485714138e-07)
(3.980965496469033872e-07 3.985163334158319725e-09 0.000000000000000000e+00 2.910899545442430049e-10 0.000000000000000000e+00 1.443117808448258687e-07)
(3.959552926045529062e-07 4.078057649160942267e-09 0.000000000000000000e+00 2.977931146838541887e-10 0.000000000000000000e+00 1.462516567345669841e-07)
(3.933771010526245275e-07 4.155457476571840510e-09 0.000000000000000000e+00 3.041472486327927992e-10 0.000000000000000000e+00 1.479548114656524515e-07)
(3.909202790007925735e-07 4.222157698079529310e-09 0.000000000000000000e+00 3.112560367164498528e-10 0.000000000000000000e+00 1.495860386621788913e-07)
(3.886243205540942215e-07 4.286219915904586359e-09 0.000000000000000000e+00 3.203215928766182251e-10 0.000000000000000000e+00 1.511868276032844435e-07)
(3.864957185575803535e-07 4.347290322559948186e-09 0.000000000000000000e+00 3.282208042265122476e-10 0.000000000000000000e+00 1.527815281654100560e-07)
(3.844901452936985833e-07 4.405236123231393536e-09 0.000000000000000000e+00 3.368837851760679636e-10 0.000000000000000000e+00 1.543601166746565125e-07)
(3.826609175365323255e-07 4.446396629566078371e-09 0.000000000000000000e+00 3.454867130349197106e-10 0.000000000000000000e+00 1.558263778778336324e-07)
(3.812614321818724996e-07 4.494489180861877865e-09 0.000000000000000000e+00 3.558380403990895606e-10 0.000000000000000000e+00 1.572002183505301342e-07)
(3.800075600627087765e-07 4.533159490148165926e-09 0.000000000000000000e+00 3.660202218155308445e-10 0.000000000000000000e+00 1.583700503322819501e-07)
(3.789041940793666744e-07 4.568116217815358362e-09 0.000000000000000000e+00 3.763637444018708334e-10 0.000000000000000000e+00 1.595512012499485288e-07)
(3.777233313436605200e-07 4.602283654272725228e-09 0.000000000000000000e+00 3.861585051364996876e-10 0.000000000000000000e+00 1.606806123329968188e-07)
(3.765846945338107863e-07 4.620507781351079007e-09 0.000000000000000000e+00 3.956847159700404286e-10 0.000000000000000000e+00 1.616968488746189837e-07)
(3.760318330832926059e-07 4.643693729739243294e-09 0.000000000000000000e+00 4.069083028554681304e-10 0.000000000000000000e+00 1.628073856179615459e-07)
(3.759761685877309944e-07 4.674695374062768561e-09 0.000000000000000000e+00 4.199871517190747033e-10 0.000000000000000000e+00 1.641005266848261868e-07)
(3.761500921794869229e-07 4.702006615831747369e-09 0.000000000000000000e+00 4.327997986496285629e-10 0.000000000000000000e+00 1.652113666863669044e-07)
(3.765738611262751090e-07 4.729548031990058603e-09 0.000000000000000000e+00 4.458674814632176475e-10 0.000000000000000000e+00 1.661863114233320254e-07)
(3.773087358892400155e-07 4.755511689340214823e-09 0.000000000000000000e+00 4.595454880040170074e-10 0.000000000000000000e+00 1.673005737126113165e-07)
(3.785404434771149905e-07 4.785670017094636629e-09 0.000000000000000000e+00 4.744880858768855150e-10 0.000000000000000000e+00 1.687200870816718591e-07)
(3.801476574821169098e-07 4.814305677962532021e-09 0.000000000000000000e+00 4.891530550581883027e-10 0.000000000000000000e+00 1.702996694336109094e-07)
(3.821281220216505970e-07 4.848350630720391830e-09 0.000000000000000000e+00 5.050946663369441670e-10 0.000000000000000000e+00 1.720455906999975559e-07)
(3.840597629703412471e-07 4.891667239399318844e-09 0.000000000000000000e+00 5.206575392750831483e-10 0.000000000000000000e+00 1.740305493368735895e-07)
(3.860603839393689257e-07 4.944970922582878183e-09 0.000000000000000000e+00 5.380299769478803143e-10 0.000000000000000000e+00 1.763332155330427907e-07)
(3.880312625938337159e-07 4.995642958200003578e-09 0.000000000000000000e+00 5.592849846374428425e-10 0.000000000000000000e+00 1.789772564487548566e-07)
(3.903983736439252753e-07 5.043418410955643511e-09 0.000000000000000000e+00 5.831346839072532750e-10 0.000000000000000000e+00 1.817530711245467377e-07)
(3.934370295325761781e-07 5.090901834611920226e-09 0.000000000000000000e+00 6.028334816721036998e-10 0.000000000000000000e+00 1.844085564449079709e-07)
(3.972010051942141489e-07 5.169290221233526668e-09 0.000000000000000000e+00 6.242512361008861065e-10 0.000000000000000000e+00 1.875300356281332238e-07)
(4.007205698739078240e-07 5.247659043944942541e-09 0.000000000000000000e+00 6.486757760739561706e-10 0.000000000000000000e+00 1.908508018930084255e-07)
(4.045226434496359297e-07 5.321495675709044894e-09 0.000000000000000000e+00 6.754760965400604818e-10 0.000000000000000000e+00 1.945273443284941298e-07)
(4.084242193311324482e-07 5.393702685465285749e-09 0.000000000000000000e+00 7.008814843543929363e-10 0.000000000000000000e+00 1.977829246357470708e-07)
(4.124663946574859613e-07 5.446612052437014193e-09 0.000000000000000000e+00 7.213361579026409251e-10 0.000000000000000000e+00 2.003251125600061433e-07)
(4.169751513154137929e-07 5.526120321662844912e-09 0.000000000000000000e+00 7.472665881059583886e-10 0.000000000000000000e+00 2.032334051993337102e-07)
(4.210780422459113998e-07 5.616224237448166149e-09 0.000000000000000000e+00 7.758417848133577285e-10 0.000000000000000000e+00 2.064716725600068852e-07)
(4.245480119823563184e-07 5.663946216396698044e-09 0.000000000000000000e+00 7.995021192404914609e-10 0.000000000000000000e+00 2.096255575936731719e-07)
(4.284869510540032721e-07 5.671896877456967195e-09 0.000000000000000000e+00 8.200679214006061817e-10 0.000000000000000000e+00 2.131387889960975761e-07)
(4.337244554374376282e-07 5.734317558249566288e-09 0.000000000000000000e+00 8.419971643500141656e-10 0.000000000000000000e+00 2.171003467920142295e-07)
(4.392868996923646110e-07 5.801249999492877487e-09 0.000000000000000000e+00 8.663875390565885638e-10 0.000000000000000000e+00 2.207255920279946404e-07)
(4.451852762800475627e-07 5.912354786050726457e-09 0.000000000000000000e+00 8.928312744662709124e-10 0.000000000000000000e+00 2.250783622063115123e-07)
(4.506653137424005982e-07 6.005178760671980432e-09 0.000000000000000000e+00 9.248641641382815914e-10 0.000000000000000000e+00 2.291362009638360961e-07)
(4.557792758513245318e-07 6.071299878308971716e-09 0.000000000000000000e+00 9.518280059582950625e-10 0.000000000000000000e+00 2.321570871531341636e-07)
(4.612638758678146526e-07 6.116721395664078026e-09 0.000000000000000000e+00 9.728990310166978670e-10 0.000000000000000000e+00 2.347140628510486045e-07)
(4.674252363537031983e-07 6.199362885866632902e-09 0.000000000000000000e+00 9.988373134582322924e-10 0.000000000000000000e+00 2.380307676654057876e-07)
(4.741951701872160925e-07 6.256353741282036812e-09 0.000000000000000000e+00 1.026592572512293456e-09 0.000000000000000000e+00 2.417251914717106965e-07)
(4.814547296562580080e-07 6.331911329211800518e-09 0.000000000000000000e+00 1.058942265050841750e-09 0.000000000000000000e+00 2.458876477863290882e-07)
(4.878135951411848179e-07 6.403230314124003200e-09 0.000000000000000000e+00 1.085577184291233457e-09 0.000000000000000000e+00 2.491885849078289705e-07)
(4.918200906338613582e-07 6.401120514470282466e-09 0.000000000000000000e+00 1.106526508038728368e-09 0.000000000000000000e+00 2.517613071226232150e-07)
(4.967879442658734215e-07 6.374720094979800451e-09 0.000000000000000000e+00 1.121726140786689483e-09 0.000000000000000000e+00 2.533943976915159874e-07)
(5.009671768489393984e-07 6.342959271828670554e-09 0.000000000000000000e+00 1.120063122236108043e-09 0.000000000000000000e+00 2.539506505070820406e-07)
(5.057479996702773211e-07 6.360506095474480381e-09 0.000000000000000000e+00 1.135463444505052415e-09 0.000000000000000000e+00 2.548985736664522970e-07)
(5.098631647567098836e-07 6.326524208316976682e-09 0.000000000000000000e+00 1.145308572930040910e-09 0.000000000000000000e+00 2.550422197378515009e-07)
(5.130902769891009057e-07 6.261298713497387997e-09 0.000000000000000000e+00 1.146138629994376859e-09 0.000000000000000000e+00 2.537403686371834521e-07)
(5.161775438921161582e-07 6.167521393905214804e-09 0.000000000000000000e+00 1.146882414093093630e-09 0.000000000000000000e+00 2.518194406530130307e-07)
(5.186107535109363502e-07 6.033531167945376405e-09 0.000000000000000000e+00 1.134977044329165738e-09 0.000000000000000000e+00 2.498906724533810277e-07)
(5.214979384945848033e-07 5.912352200511937157e-09 0.000000000000000000e+00 1.110688643746536904e-09 0.000000000000000000e+00 2.474791341743250700e-07)
(5.236077467667702138e-07 5.864863738808574193e-09 0.000000000000000000e+00 1.103148290455525151e-09 0.000000000000000000e+00 2.458553811240596012e-07)
(5.222464519746738226e-07 5.755173419078986939e-09 0.000000000000000000e+00 1.096414077995030124e-09 0.000000000000000000e+00 2.433152422392927200e-07)
(5.198900350125717158e-07 5.562722286531622659e-09 0.000000000000000000e+00 1.070596115755765320e-09 0.000000000000000000e+00 2.386394323687339584e-07)
(5.164441452607368436e-07 5.397077890895799017e-09 0.000000000000000000e+00 1.033477991590536975e-09 0.000000000000000000e+00 2.331410643581800614e-07)
(5.136808334405808875e-07 5.169869748207444169e-09 0.000000000000000000e+00 1.005296303932852858e-09 0.000000000000000000e+00 2.275238158595396636e-07)
(5.099074418284112185e-07 5.025638685729069405e-09 0.000000000000000000e+00 9.695093076350498098e-10 0.000000000000000000e+00 2.214729712063605869e-07)
(5.041083156072874261e-07 4.824527928766392225e-09 0.000000000000000000e+00 9.198403427159241516e-10 0.000000000000000000e+00 2.133370168686894670e-07)
(4.962859877649251802e-07 4.591459360761303355e-09 0.000000000000000000e+00 8.711351243027480063e-10 0.000000000000000000e+00 2.049743349042505127e-07)
(4.880237563526065989e-07 4.338681446011499076e-09 0.000000000000000000e+00 8.261214778465903853e-10 0.000000000000000000e+00 1.976182344332022341e-07)
(4.806295161679243093e-07 4.093242087559272314e-09 0.000000000000000000e+00 7.744807571936032134e-10 0.000000000000000000e+00 1.897459274796188642e-07)
(4.745219413527422023e-07 3.937506359964232607e-09 0.000000000000000000e+00 7.373255736390322028e-10 0.000000000000000000e+00 1.828457029598719229e-07)
(4.669562303900348260e-07 3.721876238437285191e-09 0.000000000000000000e+00 6.948619083519736820e-10 0.000000000000000000e+00 1.752451432434887208e-07)
(4.589543030965963872e-07 3.524451945818606104e-09 0.000000000000000000e+00 6.456351933572325946e-10 0.000000000000000000e+00 1.676472541115760640e-07)
(4.518478542337133411e-07 3.319852061450947527e-09 0.000000000000000000e+00 5.951747624152251454e-10 0.000000000000000000e+00 1.603980530189560796e-07)
(4.469150340506802241e-07 3.176295622063235166e-09 0.000000000000000000e+00 5.582957790420376290e-10 0.000000000000000000e+00 1.544781577244819993e-07)
(4.422737032017502133e-07 3.053561043669837691e-09 0.000000000000000000e+00 5.240171452882201405e-10 0.000000000000000000e+00 1.491208368879188203e-07)
(4.378701083354511040e-07 2.950010559815700275e-09 0.000000000000000000e+00 4.924462428890074827e-10 0.000000000000000000e+00 1.443672040234336269e-07)
(4.330724778283885724e-07 2.840813422337062098e-09 0.000000000000000000e+00 4.646145854287341892e-10 0.000000000000000000e+00 1.399661761728552318e-07)
(4.281485255723751310e-07 2.753197881881247387e-09 0.000000000000000000e+00 4.391772878006448848e-10 0.000000000000000000e+00 1.359860412740989889e-07)
(4.233068477863520834e-07 2.668205641355774509e-09 0.000000000000000000e+00 4.137201353450943500e-10 0.000000000000000000e+00 1.321425329310089489e-07)
(4.184084238877062479e-07 2.569957235716384601e-09 0.000000000000000000e+00 3.907546687773610764e-10 0.000000000000000000e+00 1.280755334157969213e-07)
(4.148626655454408078e-07 2.486165456542493347e-09 0.000000000000000000e+00 3.665940175117961965e-10 0.000000000000000000e+00 1.247369480484950289e-07)
(4.123529799984044747e-07 2.442919560194890971e-09 0.000000000000000000e+00 3.443283787287113997e-10 0.000000000000000000e+00 1.217730958067599337e-07)
(4.102598376783448138e-07 2.430802559771661497e-09 0.000000000000000000e+00 3.262704931761765409e-10 0.000000000000000000e+00 1.194396711792827956e-07)
(4.079497363344578864e-07 2.409992471597310485e-09 0.000000000000000000e+00 3.091884244373389869e-10 0.000000000000000000e+00 1.179032643086969209e-07)
(4.060881225493145468e-07 2.413243170407325333e-09 0.000000000000000000e+00 2.994971786627478723e-10 0.000000000000000000e+00 1.167033183411808725e-07)
(4.042481827882811601e-07 2.396379957175450535e-09 0.000000000000000000e+00 2.855711749487574427e-10 0.000000000000000000e+00 1.156369350932790211e-07)
(4.030835325583834231e-07 2.408766667656342553e-09 0.000000000000000000e+00 2.762681422706269165e-10 0.000000000000000000e+00 1.151920024008723422e-07)
(4.025618742518452834e-07 2.428582109830747673e-09 0.000000000000000000e+00 2.675072509193189600e-10 0.000000000000000000e+00 1.151530855173699902e-07)
(4.022247199934562274e-07 2.465338663632934563e-09 0.000000000000000000e+00 2.573242744496993459e-10 0.000000000000000000e+00 1.152001985588408424e-07)
(4.024216281639567289e-07 2.514767373974547072e-09 0.000000000000000000e+00 2.505113103559287247e-10 0.000000000000000000e+00 1.156269313941941864e-07)
(4.027018375588484292e-07 2.587259610358920427e-09 0.000000000000000000e+00 2.483005837910591267e-10 0.000000000000000000e+00 1.165931016060845915e-07)
(4.030242939093588230e-07 2.654971895124595577e-09 0.000000000000000000e+00 2.470111906174915007e-10 0.000000000000000000e+00 1.176879134687022040e-07)
(4.034841493889932896e-07 2.732163557538376197e-09 0.000000000000000000e+00 2.458349752286309654e-10 0.000000000000000000e+00 1.188859043598537875e-07)
(4.038552834402094877e-07 2.816865843957013355e-09 0.000000000000000000e+00 2.445099731042526953e-10 0.000000000000000000e+00 1.202176221527132147e-07)
(4.042910690932756808e-07 2.906653980392301195e-09 0.000000000000000000e+00 2.460612411889152956e-10 0.000000000000000000e+00 1.218137390714282644e-07)
(4.048373396398610757e-07 3.007633155228554115e-09 0.000000000000000000e+00 2.487697937669649538e-10 0.000000000000000000e+00 1.238087639662694917e-07)
(4.052739889243630214e-07 3.106253251259839399e-09 0.000000000000000000e+00 2.506161051875370734e-10 0.000000000000000000e+00 1.260179767607426068e-07)
(4.055682751297511413e-07 3.216414578752719369e-09 0.000000000000000000e+00 2.519328621307598716e-10 0.000000000000000000e+00 1.282505519408598329e-07)
(4.055604577749807811e-07 3.335361846040467683e-09 0.000000000000000000e+00 2.557418185721670753e-10 0.000000000000000000e+00 1.305224228372108371e-07)
(4.052330771641006438e-07 3.453020311694353825e-09 0.000000000000000000e+00 2.601608568139127772e-10 0.000000000000000000e+00 1.328854843082019083e-07)
(1.231910092228550017e-06 1.085874649774925818e-08 0.000000000000000000e+00 8.068614719960471779e-10 0.000000000000000000e+00 4.118978743329234872e-07)
(1.228596557823405685e-06 1.120609780440273429e-08 0.000000000000000000e+00 8.228864998664403781e-10 0.000000000000000000e+00 4.193196796576823572e-07)
(1.223735985674011452e-06 1.152877523680441669e-08 0.000000000000000000e+00 8.402593794509074597e-10 0.000000000000000000e+00 4.263324647360894962e-07)
(1.220318332591330001e-06 1.187670931420581560e-08 0.000000000000000000e+00 8.650610074367357787e-10 0.000000000000000000e+00 4.337290806430938879e-07)
(1.216184959171165947e-06 1.217467398585242406e-08 0.000000000000000000e+00 8.892798111325718022e-10 0.000000000000000000e+00 4.408724904808981212e-07)
(1.211623195369820873e-06 1.247885640643134348e-08 0.000000000000000000e+00 9.112469309325103850e-10 0.000000000000000000e+00 4.475300696077339867e-07)
(1.205700814726197071e-06 1.273647716569166396e-08 0.000000000000000000e+00 9.322113170594346679e-10 0.000000000000000000e+00 4.534814971421882302e-07)
(1.200125256532262253e-06 1.296202413310231056e-08 0.000000000000000000e+00 9.555560327193650037e-10 0.000000000000000000e+00 4.592291386928237302e-07)
(1.195017266182314893e-06 1.318021871319973939e-08 0.000000000000000000e+00 9.849974483860695271e-10 0.000000000000000000e+00 4.649013550373034161e-07)
(1.190403900774624578e-06 1.338970976308165500e-08 0.000000000000000000e+00 1.010931726547851252e-09 0.000000000000000000e+00 4.705692960576895065e-07)
(1.186149873547168599e-06 1.359018667640666443e-08 0.000000000000000000e+00 1.039295000755234281e-09 0.000000000000000000e+00 4.762026110318610758e-07)
(1.182420023905715602e-06 1.373944432040054616e-08 0.000000000000000000e+00 1.067567411995744151e-09 0.000000000000000000e+00 4.815055983091245101e-07)
(1.180002155850653180e-06 1.391047684895430387e-08 0.000000000000000000e+00 1.101333309394058170e-09 0.000000000000000000e+00 4.865363476580952054e-07)
(1.178021760980629460e-06 1.405282021774880689e-08 0.000000000000000000e+00 1.134673844551133167e-09 0.000000000000000000e+00 4.909487675855911587e-07)
(1.176496016211486796e-06 1.418406914666483543e-08 0.000000000000000000e+00 1.168624088707526430e-09 0.000000000000000000e+00 4.954082072251712894e-07)
(1.174717784752136969e-06 1.431316280752137080e-08 0.000000000000000000e+00 1.200969636102564101e-09 0.000000000000000000e+00 4.997181852444445611e-07)
(1.176174105306861023e-06 1.455742851581799969e-08 0.000000000000000000e+00 1.261806828088171935e-09 0.000000000000000000e+00 5.044023294105546145e-07)
(1.179430944659241617e-06 1.481877225085813660e-08 0.000000000000000000e+00 1.329691864316181080e-09 0.000000000000000000e+00 5.093891732038230750e-07)
(1.184232586168925760e-06 1.510651693942944398e-08 0.000000000000000000e+00 1.405132494511741274e-09 0.000000000000000000e+00 5.149509027242403065e-07)
(1.189755822311225600e-06 1.538470089135110282e-08 0.000000000000000000e+00 1.481603204643420677e-09 0.000000000000000000e+00 5.199442809221754604e-07)
(1.196078376103880106e-06 1.566577627589218761e-08 0.000000000000000000e+00 1.561706905861131148e-09 0.000000000000000000e+00 5.245175062942595570e-07)
(1.198396187030990470e-06 1.575021661938592227e-08 0.000000000000000000e+00 1.608440817487010837e-09 0.000000000000000000e+00 5.279971410555771884e-07)
(1.207301046955895369e-06 1.604227133372417784e-08 0.000000000000000000e+00 1.698035170654955045e-09 0.000000000000000000e+00 5.339893456649878707e-07)
(1.217423598222229927e-06 1.633105299935110607e-08 0.000000000000000000e+00 1.787770343630519061e-09 0.000000000000000000e+00 5.404951030731609620e-07)
(1.228766006991301850e-06 1.664099943071318940e-08 0.000000000000000000e+00 1.884226183131402801e-09 0.000000000000000000e+00 5.475461746816606111e-07)
(1.234946946753522273e-06 1.678826614086397127e-08 0.000000000000000000e+00 1.941326037049397636e-09 0.000000000000000000e+00 5.537991040029321383e-07)
(1.246449731305174243e-06 1.716962730141460081e-08 0.000000000000000000e+00 2.048583019672169901e-09 0.000000000000000000e+00 5.626680869743820089e-07)
(1.252770119209524421e-06 1.734408708743595298e-08 0.000000000000000000e+00 2.127632736232647495e-09 0.000000000000000000e+00 5.710245082820554945e-07)
(1.265466365523477649e-06 1.770952644738144713e-08 0.000000000000000000e+00 2.258635739805776354e-09 0.000000000000000000e+00 5.813877062268067665e-07)
(1.275279301559314358e-06 1.787572964964996172e-08 0.000000000000000000e+00 2.335381652675133082e-09 0.000000000000000000e+00 5.898209607799827308e-07)
(1.292642329141026371e-06 1.835564260030921429e-08 0.000000000000000000e+00 2.465285446384111547e-09 0.000000000000000000e+00 6.013734310506172558e-07)
(1.304011324137281939e-06 1.863014167690969250e-08 0.000000000000000000e+00 2.558818779503909599e-09 0.000000000000000000e+00 6.118969427977031691e-07)
(1.321533315761633613e-06 1.909910645246478929e-08 0.000000000000000000e+00 2.712630775119006690e-09 0.000000000000000000e+00 6.252211515907234533e-07)
(1.334209546943426966e-06 1.935713372100997446e-08 0.000000000000000000e+00 2.815556359229705490e-09 0.000000000000000000e+00 6.355767322985316617e-07)
(1.347252774504361746e-06 1.954049861767381400e-08 0.000000000000000000e+00 2.895909990771863672e-09 0.000000000000000000e+00 6.436471173181805090e-07)
(1.367187940683357483e-06 2.003375466030460708e-08 0.000000000000000000e+00 3.052113202087960520e-09 0.000000000000000000e+00 6.546169943771762236e-07)
(1.380497738903274672e-06 2.035043544138978196e-08 0.000000000000000000e+00 3.164001085796394612e-09 0.000000000000000000e+00 6.649246782844458695e-07)
(1.391883640349543514e-06 2.052778030901293815e-08 0.000000000000000000e+00 3.260561388384308173e-09 0.000000000000000000e+00 6.750462544559237060e-07)
(1.404754340176298310e-06 2.056906716888424998e-08 0.000000000000000000e+00 3.343011543591831894e-09 0.000000000000000000e+00 6.862980262499504600e-07)
(1.427439921160105275e-06 2.102353302923721844e-08 0.000000000000000000e+00 3.495222081527509370e-09 0.000000000000000000e+00 7.007984540469085048e-07)
(1.445561863043520993e-06 2.126618714508473654e-08 0.000000000000000000e+00 3.593690103100553615e-09 0.000000000000000000e+00 7.123794699338194235e-07)
(1.464777372819377759e-06 2.165531241818565974e-08 0.000000000000000000e+00 3.698100962578512237e-09 0.000000000000000000e+00 7.262589678409735428e-07)
(1.482660754607910410e-06 2.198385196058371487e-08 0.000000000000000000e+00 3.826721772943717860e-09 0.000000000000000000e+00 7.392177806133680743e-07)
(1.499267122728914990e-06 2.221198787097740050e-08 0.000000000000000000e+00 3.933155525496420774e-09 0.000000000000000000e+00 7.488393994731262580e-07)
(1.517089906083567070e-06 2.236971278995174301e-08 0.000000000000000000e+00 4.016531486686470187e-09 0.000000000000000000e+00 7.570170511520657419e-07)
(1.537386661030652735e-06 2.266301174728585046e-08 0.000000000000000000e+00 4.123926162601581980e-09 0.000000000000000000e+00 7.676465163382755606e-07)
(1.559299881753979957e-06 2.285829618032916897e-08 0.000000000000000000e+00 4.231215022760235053e-09 0.000000000000000000e+00 7.794258873196256537e-07)
(1.583164457320675310e-06 2.313287139789183239e-08 0.000000000000000000e+00 4.364362090150618026e-09 0.000000000000000000e+00 7.927386198513455724e-07)
(1.610051660664228872e-06 2.363988609715017123e-08 0.000000000000000000e+00 4.546943083595484137e-09 0.000000000000000000e+00 8.052305619846155972e-07)
(1.623264839550621624e-06 2.364780282247429978e-08 0.000000000000000000e+00 4.630688172585028520e-09 0.000000000000000000e+00 8.134225484944015563e-07)
(1.639542785318412410e-06 2.354693059651058828e-08 0.000000000000000000e+00 4.692554266386248174e-09 0.000000000000000000e+00 8.185665094048020674e-07)
(1.653265241348375680e-06 2.343146769493753723e-08 0.000000000000000000e+00 4.687370575323152472e-09 0.000000000000000000e+00 8.203015522904257055e-07)
(1.662645159873254749e-06 2.323759211422718894e-08 0.000000000000000000e+00 4.665531948814993378e-09 0.000000000000000000e+00 8.212214243272893700e-07)
(1.676184958079343486e-06 2.311829048563216119e-08 0.000000000000000000e+00 4.702642142417607627e-09 0.000000000000000000e+00 8.215899445324176424e-07)
(1.686834817166254225e-06 2.287673352481778715e-08 0.000000000000000000e+00 4.700826024675553050e-09 0.000000000000000000e+00 8.172948835401961750e-07)
(1.697019196111034776e-06 2.253260562942547528e-08 0.000000000000000000e+00 4.698303234570874659e-09 0.000000000000000000e+00 8.111072500038088874e-07)
(1.705259100032671413e-06 2.205633722717443232e-08 0.000000000000000000e+00 4.646511982929270348e-09 0.000000000000000000e+00 8.048427712915838318e-07)
(1.714791329210814081e-06 2.162136836081121716e-08 0.000000000000000000e+00 4.549655040172327792e-09 0.000000000000000000e+00 7.970964838588746908e-07)
(1.721727722267186320e-06 2.144662487232566803e-08 0.000000000000000000e+00 4.518389303354119291e-09 0.000000000000000000e+00 7.918251348841698308e-07)
(1.717676052580448423e-06 2.104264711111178541e-08 0.000000000000000000e+00 4.483344459610332547e-09 0.000000000000000000e+00 7.835112176205954444e-07)
(1.703586032276553745e-06 2.015386284432074646e-08 0.000000000000000000e+00 4.306743909019611687e-09 0.000000000000000000e+00 7.666506430008578351e-07)
(1.692687013373259589e-06 1.955478830002421233e-08 0.000000000000000000e+00 4.155779694381764673e-09 0.000000000000000000e+00 7.489903812134766460e-07)
(1.683904103270887746e-06 1.876592724532722187e-08 0.000000000000000000e+00 4.040841602942225573e-09 0.000000000000000000e+00 7.310252866662762237e-07)
(1.671803198815303710e-06 1.823105103359191318e-08 0.000000000000000000e+00 3.891438863575674979e-09 0.000000000000000000e+00 7.115586686225233566e-07)
(1.646608613202952744e-06 1.732608906970028752e-08 0.000000000000000000e+00 3.633018769343606989e-09 0.000000000000000000e+00 6.838113129995779444e-07)
(1.621446641037387977e-06 1.649690779095995069e-08 0.000000000000000000e+00 3.438402985700729509e-09 0.000000000000000000e+00 6.571053508407360572e-07)
(1.594887373995034600e-06 1.560407911306854944e-08 0.000000000000000000e+00 3.258825561447086386e-09 0.000000000000000000e+00 6.335781712373921758e-07)
(1.564865312743862849e-06 1.458731819395455120e-08 0.000000000000000000e+00 3.008460697191563401e-09 0.000000000000000000e+00 6.070381128274699225e-07)
(1.545159048600194564e-06 1.402325599590192865e-08 0.000000000000000000e+00 2.860425199658785036e-09 0.000000000000000000e+00 5.849827489309546460e-07)
(1.514585660750348310e-06 1.311827368463593900e-08 0.000000000000000000e+00 2.646864243983742740e-09 0.000000000000000000e+00 5.593076325531850779e-07)
(1.488958344596797327e-06 1.242776081510208165e-08 0.000000000000000000e+00 2.460242925187344288e-09 0.000000000000000000e+00 5.351330033125153892e-07)
(1.466293342317616427e-06 1.171865110194090341e-08 0.000000000000000000e+00 2.271746298315686355e-09 0.000000000000000000e+00 5.121521305488421326e-07)
(1.444507810521552126e-06 1.108943854013447581e-08 0.000000000000000000e+00 2.094342668004029861e-09 0.000000000000000000e+00 4.920998283699410349e-07)
(1.423708105618794721e-06 1.053525226308758039e-08 0.000000000000000000e+00 1.927907258537899547e-09 0.000000000000000000e+00 4.738461158018733463e-07)
(1.409708283325891169e-06 1.018397821043797219e-08 0.000000000000000000e+00 1.811716773633241234e-09 0.000000000000000000e+00 4.587944759930186799e-07)
(1.388462421603747377e-06 9.691947920744002282e-09 0.000000000000000000e+00 1.676457414154474778e-09 0.000000000000000000e+00 4.436645562363887374e-07)
(1.366988687294698157e-06 9.281737631529212348e-09 0.000000000000000000e+00 1.555520764072441658e-09 0.000000000000000000e+00 4.299620326554824078e-07)
(1.351646273934475483e-06 9.001957892710442682e-09 0.000000000000000000e+00 1.465475016344802956e-09 0.000000000000000000e+00 4.178408759120272534e-07)
(1.330316640069335157e-06 8.562650269182649768e-09 0.000000000000000000e+00 1.356244847807320135e-09 0.000000000000000000e+00 4.039219115851707298e-07)
(1.313342468603628169e-06 8.177891198294291274e-09 0.000000000000000000e+00 1.246887908627224723e-09 0.000000000000000000e+00 3.923512652386346177e-07)
(1.299677860686563159e-06 7.927065496319459677e-09 0.000000000000000000e+00 1.146745967590241343e-09 0.000000000000000000e+00 3.819892997058508120e-07)
(1.287371353099470153e-06 7.777836420615662953e-09 0.000000000000000000e+00 1.062899889857994023e-09 0.000000000000000000e+00 3.736209496882884723e-07)
(1.274433372883932628e-06 7.603870674058143549e-09 0.000000000000000000e+00 9.844909144340308458e-10 0.000000000000000000e+00 3.677559936179846260e-07)
(1.262936875487179521e-06 7.505204586803419324e-09 0.000000000000000000e+00 9.314502974358974894e-10 0.000000000000000000e+00 3.629488478358974854e-07)
(1.255192649572809186e-06 7.440776504859648198e-09 0.000000000000000000e+00 8.867177801969806036e-10 0.000000000000000000e+00 3.590537446430611184e-07)
(1.249560391614650797e-06 7.467166953494758092e-09 0.000000000000000000e+00 8.564421969363118874e-10 0.000000000000000000e+00 3.570955558871205920e-07)
(1.245929603886272731e-06 7.516408793686175600e-09 0.000000000000000000e+00 8.279478072362438704e-10 0.000000000000000000e+00 3.563987293172539507e-07)
(1.242874518796749778e-06 7.617843567377143672e-09 0.000000000000000000e+00 7.951428634341070336e-10 0.000000000000000000e+00 3.559683656151587654e-07)
(1.241470320834387389e-06 7.757976590009765728e-09 0.000000000000000000e+00 7.728320508821428764e-10 0.000000000000000000e+00 3.567082953305369044e-07)
(1.240321458827131829e-06 7.968668880860955144e-09 0.000000000000000000e+00 7.647692895878979756e-10 0.000000000000000000e+00 3.591051795905911542e-07)
(1.239299141952467050e-06 8.163952900163240179e-09 0.000000000000000000e+00 7.595596021670265598e-10 0.000000000000000000e+00 3.618889995969226354e-07)
(1.238695706787437809e-06 8.387650917402667400e-09 0.000000000000000000e+00 7.547148903596179501e-10 0.000000000000000000e+00 3.649782759076459029e-07)