/*--------------------------------*- C++ -*----------------------------------*\
| =========                 |                                                 |
| \\      /  F ield         | OpenFOAM: The Open Source CFD Toolbox           |
|  \\    /   O peration     | Version:  2.3.x                                 |
|   \\  /    A nd           | Web:      www.OpenFOAM.org                      |
|    \\/     M anipulation  |                                                 |
\*---------------------------------------------------------------------------*/
FoamFile
{
    version     2.0;
    format      ascii;
    class       volVectorField;
    location    "0";
    object      UDNS;
}
// * * * * * * * * * * * * * * * * * * * * * * * * * * * * * * * * * * * * * //

dimensions      [0 1 -1 0 0 0 0];

internalField   nonuniform List<vector> 
14751
(
(1.432913677962094519e-03 -4.928292950779778896e-07 6.066470673593001505e-07)
(1.452156319564867210e-03 -3.738027702201793474e-07 6.242684837992395570e-07)
(1.467410767582018067e-03 -2.974119647127154305e-07 6.579348998269459307e-07)
(1.478432319235082389e-03 -2.382844323522490506e-07 6.910143292935181171e-07)
(1.485036293181822911e-03 -1.038332725424067673e-07 7.177220446863818730e-07)
(1.487177134691153530e-03 2.130499892818863693e-08 7.531711897107081152e-07)
(1.484871388133316306e-03 7.890655860610738681e-08 8.155333003546276586e-07)
(1.478318355456810203e-03 1.654356072223849835e-07 8.932276637261709324e-07)
(1.467782785060788020e-03 2.933690823646194052e-07 9.673993074450916414e-07)
(1.453613655847142954e-03 3.577983537856654587e-07 1.039851569412047817e-06)
(1.436178582460954662e-03 3.857549119191404356e-07 1.109784567015835677e-06)
(1.415911405722006505e-03 4.769400349576035682e-07 1.165697228131076250e-06)
(1.393289457223914141e-03 5.557952498420452581e-07 1.216311650864476764e-06)
(1.368733033226328388e-03 5.543694213868343067e-07 1.249031498062656234e-06)
(1.342715677094805105e-03 5.726387015248691777e-07 1.255414903029150680e-06)
(1.315630052491444275e-03 6.300173538902080755e-07 1.243360087943656943e-06)
(1.287870953912277931e-03 6.341240728832544757e-07 1.226802143622880810e-06)
(1.259789478660123564e-03 6.044737742601230150e-07 1.228217018165987387e-06)
(1.231718107016401085e-03 6.232124943524627187e-07 1.256803812350726739e-06)
(1.203918894176403279e-03 6.393329245623172882e-07 1.285115857225007541e-06)
(1.176722504191209020e-03 5.950441419188964399e-07 1.298840633193341063e-06)
(1.150283146178728835e-03 5.670602869157274007e-07 1.277835923819111188e-06)
(1.124720347376955819e-03 5.705655780361866832e-07 1.206197484816161740e-06)
(1.100145416769867605e-03 5.446097927282414377e-07 1.126364996290029375e-06)
(1.076723390221921749e-03 4.997246846401866825e-07 1.053730447687496389e-06)
(1.054516720807018157e-03 4.814066971171665770e-07 9.591847659879774996e-07)
(1.033510957210126337e-03 4.685082628411872549e-07 8.667730556518563230e-07)
(1.013646016434572011e-03 4.315073097535394191e-07 7.995669596285420019e-07)
(9.948908723959976833e-04 4.018533749976499358e-07 7.367298498275165024e-07)
(9.773626119219665058e-04 3.801154185836092942e-07 6.646849936516648512e-07)
(9.610653145355353005e-04 3.557236903290096229e-07 6.442163849727384001e-07)
(9.456883766181450662e-04 3.347826914008181661e-07 6.631707151456044622e-07)
(9.310953263529386532e-04 3.189376170610794471e-07 7.046308261742742851e-07)
(9.172208711903785758e-04 3.009733828015887963e-07 7.218995997472555897e-07)
(9.042267919862657932e-04 2.805588226564793670e-07 7.491002750433816355e-07)
(8.921603320901475053e-04 2.665956839673847637e-07 8.158638607272877680e-07)
(8.808046361613800900e-04 2.464810981944423225e-07 8.504884966610051739e-07)
(8.700350991289220988e-04 2.311393359167037235e-07 8.349928055625340607e-07)
(8.598486888175458330e-04 2.278663808503325764e-07 7.792149910683390948e-07)
(8.502411390882457561e-04 2.142248811938613763e-07 7.236672833705278511e-07)
(8.410521287988554891e-04 1.913121397180588542e-07 6.909271756518331753e-07)
(8.322260235799572520e-04 1.977308104543081176e-07 6.713186759008202970e-07)
(8.233697171462507061e-04 2.120353025556257567e-07 6.326001186224148358e-07)
(8.147728672329081646e-04 1.838573618050649421e-07 6.111787219612189874e-07)
(8.067989878803912690e-04 1.617293943441555795e-07 6.642820651332377430e-07)
(7.991590031605726304e-04 1.815359627339666877e-07 7.910052880425350769e-07)
(7.914237467228328474e-04 1.841669262099338670e-07 9.980347332839941733e-07)
(7.834387741776921302e-04 1.664578461538668084e-07 1.116096690576448754e-06)
(7.752331228186892017e-04 1.845446611152565708e-07 1.193016169511243409e-06)
(7.667057236423071133e-04 2.164003858521180558e-07 1.298488745980875246e-06)
(7.581683143980972196e-04 1.878475422541237099e-07 1.344575467062585843e-06)
(7.498843650755359150e-04 1.650322493198329126e-07 1.395029948058552835e-06)
(7.415566770550879785e-04 2.035413010141246608e-07 1.330365669057802249e-06)
(7.327183381978027033e-04 2.115018925440675681e-07 1.280138153736390166e-06)
(7.237470426252069202e-04 1.867995795201802573e-07 1.259522390963968684e-06)
(7.147404636821765890e-04 1.902612219749032576e-07 1.199660265479584223e-06)
(7.062147695606486430e-04 2.109893279468216929e-07 1.149234302360881844e-06)
(6.982320224256819904e-04 1.713558677549907836e-07 1.071933217907633033e-06)
(6.906120163795654091e-04 1.470503348998453759e-07 1.079098777035894165e-06)
(6.831863381977962800e-04 1.732532284607382541e-07 1.214146716135039923e-06)
(6.761928974634671963e-04 1.610873311897309876e-07 1.319983422651117049e-06)
(6.701907738478893924e-04 1.114623618325347426e-07 1.456237500206305468e-06)
(6.648227890181417554e-04 1.019232965619695879e-07 1.492435458817902191e-06)
(6.607211377196006621e-04 1.034107963680577589e-07 1.498985487113723218e-06)
(6.577539628989225590e-04 5.442238872125293581e-08 1.432574741528753133e-06)
(6.560851530492506183e-04 -1.443568352434346739e-09 1.354511269409579415e-06)
(6.558960347377658286e-04 -5.099259471790048980e-09 1.307817523841101105e-06)
(6.573031788276882583e-04 -3.210609577047069491e-08 1.218027355923976198e-06)
(6.604549652349219271e-04 -9.989289026301959004e-08 1.107028944403363986e-06)
(6.653112573172595412e-04 -1.383807047572118117e-07 1.052369230769366649e-06)
(6.722136660617429333e-04 -1.574703635829639009e-07 1.009339326324128540e-06)
(6.812851161129855528e-04 -2.208239657020640769e-07 9.894773847804065301e-07)
(6.923792998599295496e-04 -2.880899615797226882e-07 9.996947876990325489e-07)
(7.052681999616158392e-04 -3.010071548630400893e-07 1.008119442658222677e-06)
(7.198836243714343752e-04 -3.256804682991602238e-07 1.027897567812813135e-06)
(7.361097650894326541e-04 -3.852611193884848117e-07 1.053736972549500169e-06)
(7.539660812928668720e-04 -4.205111887213010372e-07 1.028945896061913080e-06)
(7.733650902795954647e-04 -4.333065931239736309e-07 9.591015978235225171e-07)
(7.943026056559687222e-04 -4.789057339160207348e-07 9.043157391377209817e-07)
(8.169186366560540757e-04 -5.320197101163197282e-07 9.084033836261376051e-07)
(8.411194505731156915e-04 -5.524997074780172205e-07 9.288821436228425250e-07)
(8.668515883146200819e-04 -5.781484000330538114e-07 9.259424475775512423e-07)
(8.939805787782505349e-04 -6.193470953912910995e-07 9.050272240086914979e-07)
(9.224108632205000984e-04 -6.478588920219597890e-07 8.864562022701560219e-07)
(9.520851345897913274e-04 -6.702662851714710763e-07 8.548942068917385105e-07)
(9.830243416606102708e-04 -6.995000352874182420e-07 8.064515722649241754e-07)
(1.015106345673036196e-03 -7.251917139638720011e-07 7.587645219447485620e-07)
(1.048213092588147531e-03 -7.471286101081020844e-07 7.270107266881968356e-07)
(1.082217313875974592e-03 -7.698766936544265262e-07 6.994942347542607954e-07)
(1.116903831885937559e-03 -7.772658900932136378e-07 6.822726180663795384e-07)
(1.152035836819548589e-03 -7.819885250941995658e-07 6.653311579667973221e-07)
(1.187423522270352567e-03 -7.969757525548493319e-07 6.496052031060926974e-07)
(1.222728154530040422e-03 -7.915215289881941845e-07 6.279389621803994261e-07)
(1.257597107126247164e-03 -7.604547968446253523e-07 6.136950831311827459e-07)
(1.291604450110375420e-03 -7.482580049360531624e-07 6.212989315834141900e-07)
(1.324313250765011543e-03 -7.375566638292371688e-07 6.298566803048195006e-07)
(1.355270060574325502e-03 -6.704063873179594946e-07 6.256877026423646559e-07)
(1.384017079695733276e-03 -6.024711026155960653e-07 6.166116260270414038e-07)
(1.410051392151377182e-03 -5.673212044599288323e-07 6.097668619705915842e-07)
(4.363222149394038740e-03 -1.500665203512257118e-06 1.847240320108840358e-06)
(4.421815993074474163e-03 -1.138229435320305625e-06 1.900897533168449792e-06)
(4.468265787286693214e-03 -9.056194325501066427e-07 2.003411769972802916e-06)
(4.509218573666492515e-03 -7.267675186742774925e-07 2.107593704344992262e-06)
(4.536785875670006768e-03 -3.172106476170202875e-07 2.192640846516673287e-06)
(4.550762032154513290e-03 6.519329672025126121e-08 2.304703840514556095e-06)
(4.551130804628247296e-03 2.418486021276996097e-07 2.499609565586732560e-06)
(4.538437351251761384e-03 5.078873141726495356e-07 2.742208927638954289e-06)
(4.513417992266456971e-03 9.014179788693720169e-07 2.974832227658222099e-06)
(4.477107703048795531e-03 1.103101508652028217e-06 3.202842304326721147e-06)
(4.430589484156513026e-03 1.190902183612302840e-06 3.423752206337492440e-06)
(4.375135850518170264e-03 1.472861284087226256e-06 3.602082452018683085e-06)
(4.312197724808484317e-03 1.721189284585760360e-06 3.764547858570518071e-06)
(4.243036625223507025e-03 1.719507460999903939e-06 3.872017267925553330e-06)
(4.169094756371100226e-03 1.777191236552119240e-06 3.898056937440407964e-06)
(4.091570813675214115e-03 1.958525050940176918e-06 3.866829172649572968e-06)
(4.011000018246460574e-03 1.984599339767673009e-06 3.821240347834476397e-06)
(3.929194031345507356e-03 1.904038825445289688e-06 3.831526952232863770e-06)
(3.847224349793635680e-03 1.971016127195059839e-06 3.926793374896883519e-06)
(3.765900275995882375e-03 2.034614044905729880e-06 4.021532818277060021e-06)
(3.686158536214520845e-03 1.904517472843922005e-06 4.070921896975141680e-06)
(3.603499355190798240e-03 1.814988220916496879e-06 4.005099498550092494e-06)
(3.528555692999110413e-03 1.835492460570393691e-06 3.786125905617949397e-06)
(3.456640031960058271e-03 1.760960403196018452e-06 3.541049251435714274e-06)
(3.388162695630500803e-03 1.629139210636791252e-06 3.317868618726629238e-06)
(3.318474923115375882e-03 1.566011988529793053e-06 3.020640238701661332e-06)
(3.257208464995749089e-03 1.531069164506025526e-06 2.733119405128268016e-06)
(3.194795622664046465e-03 1.411187302737075186e-06 2.521139311710418256e-06)
(3.140597907253094880e-03 1.322619855070728705e-06 2.326930253040309090e-06)
(3.085397440276673765e-03 1.249596770648369207e-06 2.099157006015624638e-06)
(3.038603461596207402e-03 1.175725851339846445e-06 2.036904151003637429e-06)
(2.990195820608978518e-03 1.107410371612574238e-06 2.096892755536435144e-06)
(2.948673213368056475e-03 1.060461034768274077e-06 2.232315930072142829e-06)
(2.904832678767075085e-03 1.000123517718420137e-06 2.288690890809689793e-06)
(2.863888219763905188e-03 9.325945495440127329e-07 2.375778678194694895e-06)
(2.830153794456913199e-03 8.890552890002729617e-07 2.591388926730034974e-06)
(2.794333823912402252e-03 8.246425061941644519e-07 2.701061944991821668e-06)
(2.760326851735315969e-03 7.736542343570416478e-07 2.651527756204729385e-06)
(2.728218097839225139e-03 7.585091636646368049e-07 2.475587521728594456e-06)
(2.702013756838579292e-03 7.168790533602337987e-07 2.301597999692702866e-06)
(2.673022265840788777e-03 6.462537349236665052e-07 2.198075885001451657e-06)
(2.645150925343332966e-03 6.624727573763679439e-07 2.134646607033526458e-06)
(2.617157682307460695e-03 7.066489267638442135e-07 2.010260237634221970e-06)
(2.590036363161445348e-03 6.197649255507674084e-07 1.940879380355334213e-06)
(2.564871396127928888e-03 5.441333827024024706e-07 2.111171577620291890e-06)
(2.540686934455019773e-03 6.088479218438528463e-07 2.517621202012884093e-06)
(2.516328157925682048e-03 6.179094865802457795e-07 3.175215031748791208e-06)
(2.491067531512544068e-03 5.600787329991422531e-07 3.555521291961988376e-06)
(2.469055888370343382e-03 6.257410646077325724e-07 3.803590399539097401e-06)
(2.442138328089924534e-03 7.214996943820535198e-07 4.133408764045004682e-06)
(2.415125794856466408e-03 6.320306429271337049e-07 4.276688578968656640e-06)
(2.388999476508247080e-03 5.592781830250928638e-07 4.438806509248119207e-06)
(2.358889130809576143e-03 6.780044753673386447e-07 4.228747433016441191e-06)
(2.330968294739279526e-03 7.045340181926581070e-07 4.066460954960164757e-06)
(2.302609257620293753e-03 6.288796720829767026e-07 3.999975759492960129e-06)
(2.274187480253539624e-03 6.430823958475014800e-07 3.809036369461265745e-06)
(2.247245152059935535e-03 7.049520798924477242e-07 3.646109575261706734e-06)
(2.222052320038424116e-03 5.730229068587394043e-07 3.402098938173452194e-06)
(2.198041779506397335e-03 4.968543803975813426e-07 3.427151422836855161e-06)
(2.174545974700865542e-03 5.820391565812061075e-07 3.855667886219166350e-06)
(2.148987830250635809e-03 5.374278327052538058e-07 4.182950185306804274e-06)
(2.130052497827702573e-03 3.777690137328237299e-07 4.615143988014956888e-06)
(2.113169724363763661e-03 3.393236937193832289e-07 4.729383411120690390e-06)
(2.100246107807535959e-03 3.366281605197324945e-07 4.751858005070560602e-06)
(2.087445188921659839e-03 1.821390803411517968e-07 4.538059223048348435e-06)
(2.082238133679174645e-03 1.331442916754024044e-09 4.291001159320304396e-06)
(2.081718499867593261e-03 -1.795135116566993251e-08 4.141350946010006424e-06)
(2.082712392855181997e-03 -1.088631029501793384e-07 3.852926517430299027e-06)
(2.092725400960436001e-03 -3.281022999009347439e-07 3.503454601171765532e-06)
(2.104591069835856990e-03 -4.538839396370413897e-07 3.324800432152227701e-06)
(2.126434200735066987e-03 -5.228158611693372782e-07 3.190116850977377437e-06)
(2.155066729319196801e-03 -7.324298389168336462e-07 3.126862823278698409e-06)
(2.186345820224772779e-03 -9.422004399885480758e-07 3.152431086142392155e-06)
(2.223258536775215080e-03 -9.835987320157974284e-07 3.173499268913896537e-06)
(2.269281168938857424e-03 -1.066831827815284288e-06 3.235398108364583620e-06)
(2.316491477937810371e-03 -1.250405194039485415e-06 3.311471390514212691e-06)
(2.368546249265321944e-03 -1.355057424580773949e-06 3.228948552463242802e-06)
(2.429439486737711585e-03 -1.398834155132964238e-06 3.010837464323418771e-06)
(2.491005589697629832e-03 -1.536232246327010708e-06 2.834379004321664984e-06)
(2.557567952509474246e-03 -1.693820317246006632e-06 2.842599067780772743e-06)
(2.628889505840861524e-03 -1.749475388748888317e-06 2.902172819975118843e-06)
(2.704780550308327064e-03 -1.820144704166090147e-06 2.888533352693806197e-06)
(2.784832305618007570e-03 -1.938055083530279824e-06 2.818977697877681476e-06)
(2.868656861538461909e-03 -2.014626116581196766e-06 2.756905377094017422e-06)
(2.956181541876123833e-03 -2.081017124594616631e-06 2.654509470553899833e-06)
(3.047331065985258401e-03 -2.168479282040398484e-06 2.500077113337307035e-06)
(3.141708071481698599e-03 -2.244438870957299938e-06 2.348437998837590457e-06)
(3.238931191139787606e-03 -2.308654424037223575e-06 2.246502345466303856e-06)
(3.338601644076243796e-03 -2.374959026248429622e-06 2.157965464644006353e-06)
(3.440014545163010140e-03 -2.393782355662726100e-06 2.101422295582708263e-06)
(3.542468563444839402e-03 -2.404810990022008553e-06 2.045905520270750146e-06)
(3.645349399080086671e-03 -2.446971983964951521e-06 1.994315022813259813e-06)
(3.747624150838167658e-03 -2.425739857772307250e-06 1.924650603922966946e-06)
(3.848212172333783255e-03 -2.326695170763792212e-06 1.877913320606356673e-06)
(3.945821501248661031e-03 -2.286273395951983907e-06 1.898059031713997763e-06)
(4.039129254860175308e-03 -2.249255478310777096e-06 1.921059384620133745e-06)
(4.133554311364336445e-03 -2.044485789019742310e-06 1.908353921501010507e-06)
(4.214321119714693059e-03 -1.834736122471527934e-06 1.877585128266894022e-06)
(4.293607190659385481e-03 -1.727476205318060401e-06 1.856739858411263192e-06)
(7.188285176606206209e-03 -4.838922074214963179e-06 3.129434439412291746e-06)
(7.267808311149564181e-03 -3.924297356957681707e-06 3.221743470008661266e-06)
(7.341495853644611561e-03 -2.881043426678287688e-06 3.402526910976725156e-06)
(7.395358924805747053e-03 -1.878535299337457217e-06 3.590555546528487866e-06)
(7.434979585134018909e-03 -7.577446951541375421e-07 3.744945147181435203e-06)
(7.460719655430937160e-03 2.556804854931454237e-07 3.935748388514483627e-06)
(7.458681170075926424e-03 1.277286217132454684e-06 4.247032702007143447e-06)
(7.444418365120755200e-03 2.274041865975360439e-06 4.648657907730871638e-06)
(7.410544638509666826e-03 3.265202934869978585e-06 5.064058379410435996e-06)
(7.361158147170854087e-03 4.124156182396676454e-06 5.456487406979531379e-06)
(7.295149376856014181e-03 4.867316508710476972e-06 5.831288816863665769e-06)
(7.215845911149569233e-03 5.582138929876173807e-06 6.137915495707326843e-06)
(7.127246001536748435e-03 6.082223317507283545e-06 6.424180936483435297e-06)
(7.027728184538646963e-03 6.506500112935911974e-06 6.625971458446263730e-06)
(6.923098274518063588e-03 6.866208201222396128e-06 6.696032787649065635e-06)
(6.813178905675734524e-03 7.069049227911527256e-06 6.667866988648943529e-06)
(6.698098055622808862e-03 7.306508836339251648e-06 6.576146097032585626e-06)
(6.581903076154982553e-03 7.393448402996625153e-06 6.590797253433392617e-06)
(6.459923493095204652e-03 7.326004955574839872e-06 6.777000852319255820e-06)
(6.338190631151853494e-03 7.251448927374385034e-06 6.965440275343428588e-06)
(6.224438388783293426e-03 7.090839763219141267e-06 7.078255052031165372e-06)
(6.110297476231778616e-03 6.921712156189673327e-06 6.979881712321307145e-06)
(5.998718418899467303e-03 6.704720619418065699e-06 6.609268622299062213e-06)
(5.891897142956035137e-03 6.399569369403854990e-06 6.179526284874800309e-06)
(5.787583660962433013e-03 6.157801602282107107e-06 5.794871096975113184e-06)
(5.692154173513930271e-03 5.815151047728896218e-06 5.305737593316100175e-06)
(5.597303781043042395e-03 5.510786077019306454e-06 4.789242273504376101e-06)
(5.508102498223550053e-03 5.220997464631041006e-06 4.412467803707047930e-06)
(5.425224170717457724e-03 4.937261784868444677e-06 4.071046097191511924e-06)
(5.348076128378076617e-03 4.588539416998111469e-06 3.679057026563009911e-06)
(5.275286124652022769e-03 4.302127433900139957e-06 3.539516208777587768e-06)
(5.209209374205324081e-03 4.099687495131091012e-06 3.651874404263904587e-06)
(5.141216094727776506e-03 3.891296828579701142e-06 3.934345408239726564e-06)
(5.076842426620630996e-03 3.694244162834993255e-06 4.089335130164267771e-06)
(5.021119080418824480e-03 3.433598147200749975e-06 4.288117497896961217e-06)
(4.965974165193651028e-03 3.195653233008895785e-06 4.671050644144958838e-06)
(4.914812056928821206e-03 3.046762605819629711e-06 4.861230473638702695e-06)
(4.865743027792193524e-03 2.889657145260741221e-06 4.764663090713542285e-06)
(4.821022987265955080e-03 2.693520769461284804e-06 4.496265916950003430e-06)
(4.773711717314932206e-03 2.550995752616952602e-06 4.133562971746885854e-06)
(4.733337129818559336e-03 2.493468864442579858e-06 3.969069798029440072e-06)
(4.693926597599244570e-03 2.425596553830867116e-06 3.814590354326396338e-06)
(4.650447499346657167e-03 2.403699163703433750e-06 3.554174780510337976e-06)
(4.612958272313568732e-03 2.310677284379231828e-06 3.389425674675968146e-06)
(4.573835422107094990e-03 2.131326481628822074e-06 3.764675184404200641e-06)
(4.536572677921940806e-03 2.106357835198394920e-06 4.554489732757250627e-06)
(4.499348287871042344e-03 2.152739201498211180e-06 5.790535091443536312e-06)
(4.460824679996268881e-03 2.221723021077592683e-06 6.585601532315547031e-06)
(4.424934717334238175e-03 2.314260101411807534e-06 6.939798853202945705e-06)
(4.384150440449573367e-03 2.354147671910225697e-06 7.335403820224941444e-06)
(4.342372541285065973e-03 2.331958824799898105e-06 7.469412530490952511e-06)
(4.301935320388109059e-03 2.264623581515536630e-06 7.823665519562322424e-06)
(4.257716877902728743e-03 2.333813094439745478e-06 7.517868313224039566e-06)
(4.214515946298003773e-03 2.418578105445220955e-06 7.142202846288468443e-06)
(4.170876439066656741e-03 2.512659788111123867e-06 7.000286907519616347e-06)
(4.126718170440899815e-03 2.444922042454718415e-06 6.632000560991228985e-06)
(4.081659923941306778e-03 2.273037213310352745e-06 6.263897254969864436e-06)
(4.042433822606436751e-03 2.114620465909994665e-06 5.862989668990792040e-06)
(4.001701903543703268e-03 2.091221797407136301e-06 6.004769826102067582e-06)
(3.965789250052873319e-03 2.010633691577879117e-06 6.699226342840768510e-06)
(3.928981815884022462e-03 1.782834348157134333e-06 7.214185420301597460e-06)
(3.896964107288973436e-03 1.575083987131476881e-06 7.947182181119769148e-06)
(3.868925911149510063e-03 1.297239412906934137e-06 8.117806877095910258e-06)
(3.846573936829080723e-03 9.210896290986695201e-07 8.214208820474639438e-06)
(3.830227591971669017e-03 6.345628427235356743e-07 7.974031337712659509e-06)
(3.820963580363078479e-03 2.375146944625874248e-07 7.553331617286219192e-06)
(3.816089894554909254e-03 -2.055929613575374486e-07 7.213271113339140734e-06)
(3.822864071871701769e-03 -6.858510326322862742e-07 6.764341907922794383e-06)
(3.834886612042752007e-03 -1.118890941196645324e-06 6.227629321425318377e-06)
(3.860488697205506897e-03 -1.661947875286729385e-06 5.894185610602265344e-06)
(3.892222073825354119e-03 -2.280436313674134593e-06 5.712404966963860125e-06)
(3.935520036684909961e-03 -2.888365975607413341e-06 5.565197377931427715e-06)
(3.988632254681760692e-03 -3.368089033093400542e-06 5.513004294631858731e-06)
(4.047202000691484808e-03 -3.869288523422707064e-06 5.507675588130273428e-06)
(4.119729107784491327e-03 -4.321233942633234958e-06 5.584068241083250553e-06)
(4.195199651718104980e-03 -4.723393198699054232e-06 5.688182653566159032e-06)
(4.278279833170087892e-03 -5.131205595851362307e-06 5.544937501507745040e-06)
(4.369093516143394626e-03 -5.521391849718859665e-06 5.242197165005410168e-06)
(4.469207605685233953e-03 -5.942080021281162937e-06 4.930066538288712009e-06)
(4.574393136329726536e-03 -6.315826344281506750e-06 4.919101860751127238e-06)
(4.686906957533909165e-03 -6.711049929472910305e-06 5.009492737001883247e-06)
(4.803324425468304126e-03 -7.046395897628311926e-06 4.959840813982659081e-06)
(4.925814698626738639e-03 -7.354020918198461605e-06 4.833816704734487491e-06)
(5.058191219360554970e-03 -7.624497101446627748e-06 4.726853785353050926e-06)
(5.188899007820087748e-03 -7.900889564597668853e-06 4.535626818250044882e-06)
(5.326301142187756660e-03 -8.153862118505993757e-06 4.273913448189847546e-06)
(5.464704733122034350e-03 -8.355261069647493572e-06 4.017704501546128522e-06)
(5.607259152290476958e-03 -8.525507303947175817e-06 3.848839439930903525e-06)
(5.754127644444616101e-03 -8.658163425641472613e-06 3.712091863247972943e-06)
(5.899651243017138211e-03 -8.730526263641064785e-06 3.598722334392019841e-06)
(6.047816401579178894e-03 -8.723588472443203538e-06 3.483792595748255280e-06)
(6.194870050695738296e-03 -8.677182675426724668e-06 3.379247688681166914e-06)
(6.336539885992883633e-03 -8.539803889190004721e-06 3.269354203520813437e-06)
(6.475517904014938507e-03 -8.299286725331736552e-06 3.195707019491570389e-06)
(6.615854592572123320e-03 -7.979547661851042371e-06 3.223459715072893338e-06)
(6.744623432318545483e-03 -7.523337526935859174e-06 3.254902263190701222e-06)
(6.869664723280322072e-03 -7.051145482763798991e-06 3.230844234412387940e-06)
(6.985622870942639548e-03 -6.378411074495450677e-06 3.170265333668820904e-06)
(7.090680980532598071e-03 -5.600011097191849235e-06 3.135228228771180275e-06)
(9.946249238024484560e-03 -8.702366062494700937e-06 4.479553672520361919e-06)
(1.004195746722725928e-02 -6.928805204056348314e-06 4.619629109077391096e-06)
(1.012389231775091131e-02 -4.960386883667297571e-06 4.872968950284479398e-06)
(1.019137923522136710e-02 -3.010084027933055034e-06 5.139635380987711468e-06)
(1.023788774771206174e-02 -9.793044284277290428e-07 5.366896007804964887e-06)
(1.026810240943194959e-02 1.057829761343329052e-06 5.629465233297612268e-06)
(1.026657864830847824e-02 3.079228497771195996e-06 6.012573513452618611e-06)
(1.024416996828543536e-02 5.071788842773577671e-06 6.546207845604236541e-06)
(1.020552052475897850e-02 6.895756486173862856e-06 7.126378531189812688e-06)
(1.013967903851100208e-02 8.496745629123830850e-06 7.684073500726229798e-06)
(1.005911309600682549e-02 1.005928772852944126e-05 8.198513833731833116e-06)
(9.958684436243762234e-03 1.137520958000397129e-05 8.611507593657120074e-06)
(9.847305120839750306e-03 1.245004494323765658e-05 9.021131593327179660e-06)
(9.722496087954420399e-03 1.328155339361839233e-05 9.334526674449594223e-06)
(9.591559100848207758e-03 1.400514342672463811e-05 9.480256035756946302e-06)
(9.451074818863919660e-03 1.450071284709387374e-05 9.453669466523801572e-06)
(9.308112703504074770e-03 1.481495080916837003e-05 9.304956348619092466e-06)
(9.161473489971589182e-03 1.498593430847245158e-05 9.317620550779018486e-06)
(9.010937101975886182e-03 1.502132442133697008e-05 9.575696628729933726e-06)
(8.865250302854841766e-03 1.484685769084034704e-05 9.841064760358106644e-06)
(8.720585092060298069e-03 1.451788087707130443e-05 9.975731815747322716e-06)
(8.578098553549299427e-03 1.415131866999736795e-05 9.845001056344246252e-06)
(8.439378790084299184e-03 1.374711979656447915e-05 9.378467865578286202e-06)
(8.305409872119071113e-03 1.317889766685875498e-05 8.854337643290087126e-06)
(8.179030346189648457e-03 1.258449536863187863e-05 8.344802052524332404e-06)
(8.054721119652647962e-03 1.193622827551606110e-05 7.677800897826177057e-06)
(7.939935143045568841e-03 1.135211516338245588e-05 6.944437280787073687e-06)
(7.832272051633750592e-03 1.076620557818981505e-05 6.423545881759904052e-06)
(7.730390146185610670e-03 1.016174610283362886e-05 5.966853514928067881e-06)
(7.632663106647962631e-03 9.477301733234352968e-06 5.469270880413319594e-06)
(7.539003314183698873e-03 8.898246873312034107e-06 5.255718308252996305e-06)
(7.455384724401561101e-03 8.437640108896008945e-06 5.385807259592702338e-06)
(7.372337316151438870e-03 8.013160312045642181e-06 5.836081785307996646e-06)
(7.295455244730228439e-03 7.603467078956707123e-06 6.187831369774887807e-06)
(7.223550000131959137e-03 7.063619672850273496e-06 6.561790985011175140e-06)
(7.154303722933937418e-03 6.594842021491062074e-06 7.080482170632279312e-06)
(7.089507317745321474e-03 6.231366284266314199e-06 7.307447262208999700e-06)
(7.029670616571874302e-03 5.879563155676511521e-06 7.178687471184789931e-06)
(6.973997453376108366e-03 5.548220501013960186e-06 6.781307660977718300e-06)
(6.917710688267715916e-03 5.257435523620976006e-06 6.321098259246357058e-06)
(6.867275457069810761e-03 5.088503560007664656e-06 6.015755009547344879e-06)
(6.815030710000825193e-03 5.005452296149723597e-06 5.695192107104184601e-06)
(6.763735246912960450e-03 4.939432953766979107e-06 5.329767063723827604e-06)
(6.714602730249864121e-03 4.674348256476273078e-06 5.079553365586651377e-06)
(6.668679022694828928e-03 4.335288131458936911e-06 5.701785902723414506e-06)
(6.621924675405962447e-03 4.302406979998252572e-06 6.872280037265955370e-06)
(6.578635953917541523e-03 4.366290534168717729e-06 8.688181242333700938e-06)
(6.530727856498134629e-03 4.473759770454207672e-06 9.883715086706687853e-06)
(6.481506029428027449e-03 4.649099534229180318e-06 1.035137865202396740e-05)
(6.431123009646237329e-03 4.796202019292522556e-06 1.071444443729892852e-05)
(6.379557490004607312e-03 4.770707883013083084e-06 1.081787761017935086e-05)
(6.329126249308755087e-03 4.579725108694789347e-06 1.128563374240239888e-05)
(6.279169966625379809e-03 4.809378786588537107e-06 1.094511296329997010e-05)
(6.223579000247255258e-03 4.970725089652779032e-06 1.039409838384024302e-05)
(6.170162715695079458e-03 5.063864482644785655e-06 1.016898979052944979e-05)
(6.113571593041516872e-03 4.909734608030399958e-06 9.514106683090180094e-06)
(6.059603195152138584e-03 4.621679509324789955e-06 8.830033868909257456e-06)
(6.009090450655454711e-03 4.296895013284966353e-06 8.360162815203234034e-06)
(5.960778286618825805e-03 4.167662525555803789e-06 8.775748848171021729e-06)
(5.915419717206651593e-03 3.944693884706029862e-06 9.663319212202093700e-06)
(5.870512077917849729e-03 3.543066479362331963e-06 1.017797583960192017e-05)
(5.831798477862992248e-03 2.925122564491731703e-06 1.104829618144944603e-05)
(5.799582808651416836e-03 2.425479737147858478e-06 1.137262473353666399e-05)
(5.774178329853998752e-03 1.768053277352869355e-06 1.154338335514320210e-05)
(5.757241762849408390e-03 9.905127170648943202e-07 1.133854946449013119e-05)
(5.747013544837413501e-03 1.272741468524506285e-07 1.075686869381917416e-05)
(5.746884984615441977e-03 -7.174966332129812214e-07 1.029238200425435750e-05)
(5.758452638227927814e-03 -1.730062400928898833e-06 9.830069998285084109e-06)
(5.781534705823428849e-03 -2.777488048017076116e-06 9.281404713397517888e-06)
(5.813790311067125287e-03 -3.858882615747362321e-06 8.836657801368600100e-06)
(5.860138242159858117e-03 -5.074795607588614993e-06 8.619497773821337871e-06)
(5.920819714469411493e-03 -6.318926312935857395e-06 8.293375644950062045e-06)
(5.992423676312970231e-03 -7.413835331794325062e-06 8.017511051804217403e-06)
(6.076531624481316951e-03 -8.416969225514720439e-06 7.894048201852363301e-06)
(6.170826127550970569e-03 -9.292882010355139912e-06 7.969142577964569184e-06)
(6.272262773796488493e-03 -1.017771741759163637e-05 8.050573122320979919e-06)
(6.386579516024917108e-03 -1.104601603680423823e-05 7.849633003666104758e-06)
(6.507633103833771956e-03 -1.176925325204051396e-05 7.542101183873344247e-06)
(6.635037100107160288e-03 -1.258517313453698963e-05 7.166488023085145638e-06)