/*--------------------------------*- C++ -*----------------------------------*\
| =========                 |                                                 |
| \\      /  F ield         | OpenFOAM: The Open Source CFD Toolbox           |
|  \\    /   O peration     | Version:  2.3.x                                 |
|   \\  /    A nd           | Web:      www.OpenFOAM.org                      |
|    \\/     M anipulation  |                                                 |
\*---------------------------------------------------------------------------*/
FoamFile
{
    version     2.0;
    format      ascii;
    class       volScalarField;
    location    "10000";
    object      epsilon;
}
// * * * * * * * * * * * * * * * * * * * * * * * * * * * * * * * * * * * * * //

dimensions      [0 2 -3 0 0 0 0];

internalField   nonuniform List<scalar> 
14751
(
1.86885e-09
1.95434e-09
2.0441e-09
2.13447e-09
2.227e-09
2.32163e-09
2.4166e-09
2.5133e-09
2.61113e-09
2.71096e-09
2.81217e-09
2.91592e-09
3.0203e-09
3.12588e-09
3.23191e-09
3.33804e-09
3.4447e-09
3.55087e-09
3.65733e-09
3.76381e-09
3.87089e-09
3.97849e-09
4.08725e-09
4.19635e-09
4.30687e-09
4.41856e-09
4.5317e-09
4.64624e-09
4.76238e-09
4.88019e-09
4.99966e-09
5.12084e-09
5.24374e-09
5.36837e-09
5.49473e-09
5.62264e-09
5.75261e-09
5.88434e-09
6.01767e-09
6.15241e-09
6.28874e-09
6.42629e-09
6.56416e-09
6.70257e-09
6.84092e-09
6.97879e-09
7.1159e-09
7.25203e-09
7.38682e-09
7.51968e-09
7.6501e-09
7.77766e-09
7.90156e-09
8.0212e-09
8.13578e-09
8.24444e-09
8.34605e-09
8.43945e-09
8.52319e-09
8.59565e-09
8.65138e-09
8.68386e-09
8.68527e-09
8.64628e-09
8.55596e-09
8.40077e-09
8.16656e-09
7.84086e-09
7.41702e-09
6.89537e-09
6.28873e-09
5.62288e-09
4.93409e-09
4.26223e-09
3.6427e-09
3.10075e-09
2.64779e-09
2.28116e-09
1.99247e-09
1.76879e-09
1.59993e-09
1.47464e-09
1.384e-09
1.31967e-09
1.27562e-09
1.24816e-09
1.23471e-09
1.23351e-09
1.24324e-09
1.26289e-09
1.29186e-09
1.32932e-09
1.37483e-09
1.42819e-09
1.48819e-09
1.55517e-09
1.62699e-09
1.703e-09
1.78248e-09
9.59375e-09
1.00147e-08
1.04549e-08
1.0897e-08
1.13485e-08
1.18085e-08
1.22677e-08
1.27321e-08
1.3199e-08
1.36726e-08
1.41511e-08
1.46396e-08
1.51309e-08
1.56282e-08
1.61282e-08
1.66298e-08
1.71346e-08
1.7638e-08
1.81433e-08
1.86495e-08
1.9159e-08
1.96714e-08
2.01894e-08
2.07095e-08
2.12363e-08
2.17691e-08
2.23088e-08
2.28554e-08
2.34099e-08
2.39724e-08
2.45432e-08
2.51223e-08
2.57099e-08
2.6306e-08
2.69107e-08
2.75236e-08
2.81466e-08
2.87784e-08
2.94184e-08
3.0066e-08
3.07218e-08
3.13838e-08
3.2048e-08
3.27151e-08
3.33826e-08
3.40491e-08
3.4713e-08
3.53734e-08
3.60285e-08
3.66759e-08
3.73132e-08
3.7938e-08
3.85468e-08
3.9137e-08
3.97045e-08
4.02453e-08
4.07535e-08
4.12235e-08
4.16473e-08
4.2016e-08
4.2302e-08
4.24742e-08
4.24955e-08
4.23211e-08
4.18977e-08
4.11609e-08
4.00433e-08
3.84864e-08
3.64576e-08
3.39572e-08
3.10436e-08
2.78362e-08
2.4506e-08
2.12449e-08
1.82294e-08
1.55907e-08
1.33894e-08
1.16106e-08
1.02067e-08
9.11075e-09
8.27491e-09
7.64798e-09
7.1903e-09
6.86343e-09
6.63865e-09
6.49792e-09
6.42842e-09
6.4213e-09
6.46981e-09
6.5686e-09
6.71453e-09
6.90322e-09
7.13223e-09
7.40019e-09
7.70073e-09
8.03539e-09
8.39316e-09
8.77105e-09
9.16578e-09
2.31295e-08
2.41087e-08
2.5144e-08
2.62016e-08
2.72976e-08
2.84269e-08
2.95638e-08
3.07237e-08
3.18973e-08
3.30833e-08
3.42864e-08
3.55199e-08
3.67701e-08
3.8046e-08
3.93392e-08
4.06475e-08
4.19729e-08
4.33045e-08
4.46487e-08
4.60021e-08
4.73693e-08
4.87489e-08
5.01458e-08
5.15518e-08
5.29772e-08
5.44198e-08
5.58817e-08
5.73627e-08
5.88648e-08
6.03888e-08
6.19346e-08
6.3503e-08
6.5094e-08
6.67081e-08
6.83453e-08
7.00049e-08
7.16915e-08
7.34021e-08
7.51353e-08
7.68901e-08
7.86666e-08
8.04604e-08
8.22622e-08
8.40721e-08
8.58854e-08
8.76971e-08
8.95038e-08
9.13016e-08
9.30843e-08
9.48475e-08
9.65846e-08
9.82887e-08
9.99503e-08
1.01561e-07
1.03111e-07
1.04586e-07
1.05972e-07
1.07251e-07
1.08401e-07
1.09395e-07
1.10154e-07
1.10597e-07
1.10626e-07
1.1012e-07
1.08936e-07
1.06907e-07
1.0386e-07
9.96499e-08
9.42052e-08
8.75481e-08
7.98553e-08
7.14585e-08
6.28097e-08
5.43998e-08
4.66722e-08
3.99539e-08
3.43862e-08
2.9909e-08
2.63733e-08
2.35927e-08
2.14376e-08
1.97943e-08
1.85719e-08
1.76793e-08
1.70452e-08
1.66236e-08
1.6381e-08
1.62938e-08
1.63438e-08
1.6516e-08
1.68013e-08
1.71875e-08
1.7668e-08
1.82397e-08
1.88873e-08
1.96165e-08
2.04028e-08
2.1245e-08
2.21403e-08
4.58391e-08
4.77918e-08
4.99039e-08
5.21213e-08
5.4473e-08
5.69446e-08
5.9469e-08
6.20772e-08
6.47416e-08
6.7453e-08
7.0209e-08
7.29984e-08
7.58269e-08
7.87152e-08
8.16411e-08
8.46002e-08
8.75928e-08
9.05962e-08
9.36208e-08
9.66589e-08
9.97169e-08
1.02791e-07
1.05889e-07
1.08995e-07
1.12127e-07
1.1528e-07
1.18457e-07
1.21656e-07
1.24882e-07
1.28134e-07
1.31412e-07
1.34718e-07
1.3805e-07
1.41411e-07
1.44799e-07
1.48214e-07
1.51664e-07
1.55143e-07
1.5865e-07
1.62183e-07
1.6574e-07
1.69317e-07
1.72897e-07
1.76478e-07
1.80047e-07
1.83606e-07
1.87149e-07
1.90669e-07
1.94159e-07
1.9761e-07
2.0101e-07
2.0435e-07
2.07612e-07
2.10781e-07
2.13839e-07
2.16764e-07
2.19525e-07
2.22089e-07
2.24411e-07
2.26434e-07
2.28011e-07
2.29009e-07
2.29249e-07
2.2851e-07
2.26527e-07
2.22987e-07
2.17554e-07
2.09919e-07
1.99871e-07
1.8735e-07
1.72569e-07
1.56052e-07
1.38613e-07
1.21231e-07
1.04853e-07
9.02221e-08
7.77359e-08
6.74278e-08
5.91365e-08
5.25532e-08
4.74065e-08
4.34219e-08
4.04231e-08
3.81926e-08
3.6557e-08
3.54018e-08
3.46439e-08
3.42247e-08
3.40987e-08
3.42293e-08
3.45932e-08
3.51615e-08
3.59206e-08
3.68654e-08
3.79664e-08
3.92424e-08
4.0649e-08
4.21977e-08
4.38971e-08
8.26325e-08
8.58488e-08
8.93847e-08
9.31629e-08
9.72222e-08
1.01528e-07
1.05937e-07
1.10499e-07
1.15152e-07
1.19869e-07
1.24636e-07
1.29435e-07
1.34245e-07
1.39046e-07
1.43852e-07
1.48669e-07
1.53486e-07
1.58267e-07
1.63018e-07
1.67725e-07
1.72389e-07
1.77004e-07
1.81577e-07
1.86088e-07
1.90559e-07
1.94984e-07
1.99368e-07
2.03712e-07
2.08021e-07
2.123e-07
2.1655e-07
2.20777e-07
2.24984e-07
2.29174e-07
2.33353e-07
2.37524e-07
2.41694e-07
2.45865e-07
2.50037e-07
2.54214e-07
2.58387e-07
2.62556e-07
2.66721e-07
2.70882e-07
2.75035e-07
2.79179e-07
2.83314e-07
2.87438e-07
2.91544e-07
2.95629e-07
2.99685e-07
3.03703e-07
3.0767e-07
3.11573e-07
3.15394e-07
3.19111e-07
3.22694e-07
3.26105e-07
3.29293e-07
3.32184e-07
3.34656e-07
3.3658e-07
3.37784e-07
3.38048e-07
3.37103e-07
3.34625e-07
3.30236e-07
3.23526e-07
3.14098e-07
3.01605e-07
2.85862e-07
2.66959e-07
2.45377e-07
2.22035e-07
1.98197e-07
1.75236e-07
1.5428e-07
1.35962e-07
1.20508e-07
1.07751e-07
9.74319e-08
8.91597e-08
8.26404e-08
7.76349e-08
7.38176e-08
7.09611e-08
6.88969e-08
6.75041e-08
6.66871e-08
6.63665e-08
6.64904e-08
6.6995e-08
6.78515e-08
6.90504e-08
7.05356e-08
7.23509e-08
7.44174e-08
7.67747e-08
7.94545e-08
1.31443e-07
1.35463e-07
1.39918e-07
1.44688e-07
1.49794e-07
1.55167e-07
1.60568e-07
1.6605e-07
1.71514e-07
1.76911e-07
1.82217e-07
1.87409e-07
1.9246e-07
1.9736e-07
2.02113e-07
2.06704e-07
2.11147e-07
2.1545e-07
2.19626e-07
2.23669e-07
2.2759e-07
2.31396e-07
2.35101e-07
2.38706e-07
2.42232e-07
2.45687e-07
2.49084e-07
2.52431e-07
2.55741e-07
2.59022e-07
2.62283e-07
2.65532e-07
2.68778e-07
2.72028e-07
2.75289e-07
2.78565e-07
2.81864e-07
2.8519e-07
2.88545e-07
2.91929e-07
2.95345e-07
2.98798e-07
3.02288e-07
3.0582e-07
3.0939e-07
3.13e-07
3.16651e-07
3.20341e-07
3.24068e-07
3.2783e-07
3.31622e-07
3.3544e-07
3.39274e-07
3.43113e-07
3.46946e-07
3.50755e-07
3.54516e-07
3.582e-07
3.61763e-07
3.65145e-07
3.68274e-07
3.71058e-07
3.73378e-07
3.7508e-07
3.75977e-07
3.75845e-07
3.74411e-07
3.71369e-07
3.66391e-07
3.59145e-07
3.49342e-07
3.368e-07
3.21523e-07
3.03775e-07
2.84115e-07
2.63362e-07
2.42457e-07
2.22267e-07
2.03523e-07
1.86653e-07
1.71914e-07
1.59281e-07
1.48669e-07
1.39874e-07
1.32822e-07
1.27238e-07
1.22899e-07
1.19635e-07
1.17304e-07
1.15778e-07
1.14971e-07
1.14771e-07
1.15128e-07
1.16026e-07
1.1737e-07
1.19236e-07
1.21492e-07
1.24209e-07
1.27439e-07
1.77647e-07
1.80923e-07
1.84561e-07
1.88408e-07
1.92453e-07
1.9662e-07
2.00661e-07
2.04623e-07
2.08431e-07
2.1205e-07
2.15478e-07
2.18715e-07
2.21762e-07
2.2463e-07
2.27339e-07
2.29901e-07
2.32339e-07
2.34666e-07
2.36903e-07
2.39071e-07
2.41184e-07
2.43257e-07
2.45303e-07
2.47334e-07
2.49361e-07
2.51395e-07
2.53445e-07
2.55519e-07
2.57623e-07
2.59765e-07
2.6195e-07
2.64183e-07
2.66469e-07
2.68812e-07
2.71214e-07
2.7368e-07
2.76211e-07
2.7881e-07
2.81478e-07
2.84216e-07
2.87025e-07
2.89909e-07
2.92868e-07
2.95903e-07
2.99014e-07
3.022e-07
3.05462e-07
3.08799e-07
3.12209e-07
3.15691e-07
3.19241e-07
3.22856e-07
3.2653e-07
3.30256e-07
3.34023e-07
3.37819e-07
3.41628e-07
3.45427e-07
3.49185e-07
3.5286e-07
3.564e-07
3.59742e-07
3.62804e-07
3.65481e-07
3.67644e-07
3.69137e-07
3.69774e-07
3.69344e-07
3.67621e-07
3.64378e-07
3.59411e-07
3.52576e-07
3.43831e-07
3.33264e-07
3.21107e-07
3.07723e-07
2.93556e-07
2.79052e-07
2.6466e-07
2.50742e-07
2.3763e-07
2.25518e-07
2.14563e-07
2.04817e-07
1.96287e-07
1.89056e-07
1.83043e-07
1.78145e-07
1.74268e-07
1.71302e-07
1.69172e-07
1.67758e-07
1.67001e-07
1.66889e-07
1.67299e-07
1.68322e-07
1.69787e-07
1.71762e-07
1.74288e-07
2.0386e-07
2.05287e-07
2.06892e-07
2.08542e-07
2.10224e-07
2.11904e-07
2.13432e-07
2.14849e-07
2.16136e-07
2.17292e-07
2.18337e-07
2.19292e-07
2.20174e-07
2.21004e-07
2.21804e-07
2.22592e-07
2.23387e-07
2.24203e-07
2.2505e-07
2.25944e-07
2.26891e-07
2.27897e-07
2.28969e-07
2.30114e-07
2.31333e-07
2.3263e-07
2.34007e-07
2.35466e-07
2.37007e-07
2.38632e-07
2.4034e-07
2.42133e-07
2.44012e-07
2.45976e-07
2.48025e-07
2.50161e-07
2.52382e-07
2.54689e-07
2.57084e-07
2.59565e-07
2.62132e-07
2.64786e-07
2.67527e-07
2.70356e-07
2.73273e-07
2.76276e-07
2.79365e-07
2.82539e-07
2.85798e-07
2.89139e-07
2.92561e-07
2.9606e-07
2.99633e-07
3.03273e-07
3.06974e-07
3.10724e-07
3.14512e-07
3.1832e-07
3.22124e-07
3.25892e-07
3.29579e-07
3.33131e-07
3.36486e-07
3.3956e-07
3.42252e-07
3.44439e-07
3.45978e-07
3.46712e-07
3.4648e-07
3.45131e-07
3.42546e-07
3.3866e-07
3.33482e-07
3.27106e-07
3.19695e-07
3.11462e-07
3.02639e-07
2.93443e-07
2.84084e-07
2.74744e-07
2.65602e-07
2.56797e-07
2.48457e-07
2.40679e-07
2.33539e-07
2.27107e-07
2.21423e-07
2.16518e-07
2.12372e-07
2.08934e-07
2.06173e-07
2.04004e-07
2.02385e-07
2.01309e-07
2.00668e-07
2.00526e-07
2.0073e-07
2.0131e-07
2.02281e-07
2.07072e-07
2.06768e-07
2.06456e-07
2.06079e-07
2.05641e-07
2.0517e-07
2.04638e-07
2.04071e-07
2.03504e-07
2.02954e-07
2.02447e-07
2.02003e-07
2.01639e-07
2.01367e-07
2.012e-07
2.01144e-07
2.01206e-07
2.0139e-07
2.01694e-07
2.02121e-07
2.02667e-07
2.03334e-07
2.04118e-07
2.05013e-07
2.06017e-07
2.07129e-07
2.08344e-07
2.09661e-07
2.11076e-07
2.12588e-07
2.14194e-07
2.15893e-07
2.17682e-07
2.19562e-07
2.2153e-07
2.23585e-07
2.25727e-07
2.27956e-07
2.30272e-07
2.32671e-07
2.35155e-07
2.37723e-07
2.40375e-07
2.43111e-07
2.45931e-07
2.48833e-07
2.51817e-07
2.54882e-07
2.58028e-07
2.61252e-07
2.64553e-07
2.67927e-07
2.71371e-07
2.74879e-07
2.78445e-07
2.82058e-07
2.85708e-07
2.89375e-07
2.93039e-07
2.9667e-07
3.0023e-07
3.03661e-07
3.06902e-07
3.09878e-07
3.125e-07
3.1466e-07
3.16242e-07
3.17121e-07
3.17182e-07
3.16334e-07
3.14522e-07
3.11749e-07
3.08073e-07
3.03612e-07
2.98513e-07
2.92928e-07
2.87004e-07
2.80865e-07
2.74609e-07
2.68331e-07
2.62108e-07
2.56023e-07
2.50141e-07
2.44532e-07
2.39253e-07
2.34362e-07
2.29903e-07
2.25901e-07
2.22364e-07
2.1929e-07
2.16663e-07
2.14443e-07
2.12596e-07
2.11103e-07
2.09897e-07
2.08977e-07
2.08245e-07
2.07665e-07
2.07237e-07
1.94535e-07
1.93172e-07
1.91666e-07
1.90054e-07
1.88363e-07
1.8667e-07
1.85041e-07
1.83484e-07
1.8206e-07
1.80787e-07
1.7968e-07
1.78749e-07
1.78e-07
1.77431e-07
1.7704e-07
1.76823e-07
1.76774e-07
1.76889e-07
1.77157e-07
1.77572e-07
1.78125e-07
1.78812e-07
1.79623e-07
1.80559e-07
1.81605e-07
1.82758e-07
1.84013e-07
1.85366e-07
1.86813e-07
1.88351e-07
1.89977e-07
1.91689e-07
1.93485e-07
1.95363e-07
1.97322e-07
1.99362e-07
2.0148e-07
2.03677e-07
2.05949e-07
2.08297e-07
2.10719e-07
2.13216e-07
2.15787e-07
2.18431e-07
2.21149e-07
2.23938e-07
2.26797e-07
2.29727e-07
2.32724e-07
2.35786e-07
2.38911e-07
2.42096e-07
2.45335e-07
2.48622e-07
2.51949e-07
2.55304e-07
2.58673e-07
2.62036e-07
2.6537e-07
2.68641e-07
2.71812e-07
2.74833e-07
2.77627e-07
2.80123e-07
2.82236e-07
2.83875e-07
2.84941e-07
2.85345e-07
2.85012e-07
2.83904e-07
2.8202e-07
2.79415e-07
2.76184e-07
2.72455e-07
2.6836e-07
2.64017e-07
2.59524e-07
2.54958e-07
2.50366e-07
2.45802e-07
2.41293e-07
2.36889e-07
2.32618e-07
2.28526e-07
2.24643e-07
2.21003e-07
2.17635e-07
2.14556e-07
2.11772e-07
2.09285e-07
2.07082e-07
2.05149e-07
2.03454e-07
2.01963e-07
2.00643e-07
1.99428e-07
1.98288e-07
1.97103e-07
1.9584e-07
1.74434e-07
1.72705e-07
1.70749e-07
1.68695e-07
1.66588e-07
1.64527e-07
1.62625e-07
1.60872e-07
1.59333e-07
1.58015e-07
1.56922e-07
1.56051e-07
1.55396e-07
1.54947e-07
1.54691e-07
1.5462e-07
1.54719e-07
1.54984e-07
1.55397e-07
1.55952e-07
1.56636e-07
1.57444e-07
1.58365e-07
1.594e-07
1.60534e-07
1.61765e-07
1.63087e-07
1.64497e-07
1.65989e-07
1.6756e-07
1.69209e-07
1.70932e-07
1.72729e-07
1.74598e-07
1.76536e-07
1.78543e-07
1.80617e-07
1.82757e-07
1.84962e-07
1.87229e-07
1.8956e-07
1.91952e-07
1.94406e-07
1.96919e-07
1.99491e-07
2.0212e-07
2.04804e-07
2.07542e-07
2.10329e-07
2.13163e-07
2.16039e-07
2.18953e-07
2.21897e-07
2.24863e-07
2.27839e-07
2.3081e-07
2.3376e-07
2.36665e-07
2.39495e-07
2.42215e-07
2.44782e-07
2.47146e-07
2.49245e-07
2.50993e-07
2.52314e-07
2.5313e-07
2.53372e-07
2.52986e-07
2.5194e-07
2.50244e-07
2.47944e-07
2.45128e-07
2.4191e-07
2.38414e-07
2.34755e-07
2.31017e-07
2.27266e-07
2.23552e-07
2.19892e-07
2.16319e-07
2.12833e-07
2.09468e-07
2.06231e-07
2.03147e-07
2.00231e-07
1.97496e-07
1.94959e-07
1.92624e-07
1.90494e-07
1.88569e-07
1.86833e-07
1.85286e-07
1.83894e-07
1.82612e-07
1.81426e-07
1.80242e-07
1.79059e-07
1.7776e-07
1.76221e-07
1.52583e-07
1.50995e-07
1.4913e-07
1.47192e-07
1.45227e-07
1.43336e-07
1.41644e-07
1.40129e-07
1.38847e-07
1.37798e-07
1.36977e-07
1.36372e-07
1.35975e-07
1.35771e-07
1.35745e-07
1.35886e-07
1.3618e-07
1.3662e-07
1.37192e-07
1.37886e-07
1.38693e-07
1.39606e-07
1.40618e-07
1.41727e-07
1.42922e-07
1.442e-07
1.45555e-07
1.46986e-07
1.48487e-07
1.50056e-07
1.51691e-07
1.53389e-07
1.55149e-07
1.56968e-07
1.58846e-07
1.60781e-07
1.6277e-07
1.64813e-07
1.66908e-07
1.69054e-07
1.71249e-07
1.73491e-07
1.7578e-07
1.78113e-07
1.80489e-07
1.82904e-07
1.85356e-07
1.8784e-07
1.90353e-07
1.92889e-07
1.95442e-07
1.98004e-07
2.00565e-07
2.03114e-07
2.05636e-07
2.08113e-07
2.10523e-07
2.12837e-07
2.15024e-07
2.17044e-07
2.18854e-07
2.20401e-07
2.21629e-07
2.22477e-07
2.2287e-07
2.22745e-07
2.22064e-07
2.20814e-07
2.19007e-07
2.16693e-07
2.13949e-07
2.10881e-07
2.07603e-07
2.04225e-07
2.00835e-07
1.97491e-07
1.94232e-07
1.91089e-07
1.88061e-07
1.85166e-07
1.82391e-07
1.79758e-07
1.7726e-07
1.74912e-07
1.72714e-07
1.70669e-07
1.68783e-07
1.67055e-07
1.65483e-07
1.64065e-07
1.62786e-07
1.61649e-07
1.60623e-07
1.59662e-07
1.58758e-07
1.57813e-07
1.56841e-07
1.55718e-07
1.54338e-07
1.32272e-07
1.31087e-07
1.29595e-07
1.28042e-07
1.26472e-07
1.24977e-07
1.23675e-07
1.22538e-07
1.21616e-07
1.20904e-07
1.20393e-07
1.20072e-07
1.19931e-07
1.19955e-07
1.20132e-07
1.20451e-07
1.20899e-07
1.21472e-07
1.22155e-07
1.22942e-07
1.23824e-07
1.24796e-07
1.2585e-07
1.26987e-07
1.28196e-07
1.29475e-07
1.3082e-07
1.32228e-07
1.33695e-07
1.35219e-07
1.36798e-07
1.38429e-07
1.4011e-07
1.41841e-07
1.43617e-07
1.45439e-07
1.47303e-07
1.49208e-07
1.51152e-07
1.53133e-07
1.5515e-07
1.57198e-07
1.59277e-07
1.61384e-07
1.63514e-07
1.65664e-07
1.67829e-07
1.70004e-07
1.72182e-07
1.74357e-07
1.76519e-07
1.78658e-07
1.80762e-07
1.82815e-07
1.84799e-07
1.86693e-07
1.88472e-07
1.90105e-07
1.91557e-07
1.9279e-07
1.93761e-07
1.94423e-07
1.94729e-07
1.94633e-07
1.94097e-07
1.93083e-07
1.91566e-07
1.89572e-07
1.87155e-07
1.84389e-07
1.81368e-07
1.78197e-07
1.74976e-07
1.71791e-07
1.68704e-07
1.65748e-07
1.62942e-07
1.60301e-07
1.57814e-07
1.55487e-07
1.533e-07
1.51267e-07
1.49375e-07
1.47627e-07
1.46021e-07
1.44549e-07
1.43214e-07
1.42011e-07
1.40937e-07
1.39989e-07
1.39154e-07
1.38435e-07
1.37807e-07
1.37223e-07
1.36683e-07
1.36093e-07
1.35469e-07
1.34691e-07
1.33692e-07
1.14855e-07
1.14132e-07
1.13081e-07
1.11967e-07
1.10834e-07
1.09758e-07
1.08844e-07
1.08069e-07
1.07474e-07
1.07054e-07
1.06803e-07
1.06709e-07
1.06764e-07
1.06956e-07
1.07275e-07
1.07713e-07
1.08258e-07
1.08906e-07
1.09647e-07
1.10474e-07
1.11381e-07
1.12363e-07
1.13414e-07
1.14534e-07
1.15714e-07
1.16954e-07
1.18248e-07
1.19595e-07
1.2099e-07
1.22432e-07
1.23918e-07
1.25446e-07
1.27013e-07
1.28618e-07
1.30258e-07
1.31931e-07
1.33635e-07
1.35366e-07
1.37123e-07
1.38903e-07
1.40703e-07
1.42519e-07
1.44349e-07
1.46187e-07
1.48029e-07
1.4987e-07
1.51704e-07
1.53522e-07
1.55318e-07
1.57081e-07
1.588e-07
1.60463e-07
1.62055e-07
1.63558e-07
1.64952e-07
1.66213e-07
1.67316e-07
1.68228e-07
1.68919e-07
1.69353e-07
1.69493e-07
1.69305e-07
1.68755e-07
1.67819e-07
1.66483e-07
1.6475e-07
1.62631e-07
1.60153e-07
1.57398e-07
1.54454e-07
1.51413e-07
1.48364e-07
1.45386e-07
1.42536e-07
1.39851e-07
1.37346e-07
1.35026e-07
1.32891e-07
1.30926e-07
1.29131e-07
1.27482e-07
1.25986e-07
1.24627e-07
1.23406e-07
1.22314e-07
1.21343e-07
1.20494e-07
1.19759e-07
1.19134e-07
1.18617e-07
1.18197e-07
1.17877e-07
1.17634e-07
1.1743e-07
1.17262e-07
1.17049e-07
1.16805e-07
1.16423e-07
1.15843e-07
1.00492e-07
1.00175e-07
9.95174e-08
9.87878e-08
9.80292e-08
9.73067e-08
9.67103e-08
9.62224e-08
9.58794e-08
9.56789e-08
9.5614e-08
9.56778e-08
9.5863e-08
9.6161e-08
9.65631e-08
9.70631e-08
9.76521e-08
9.83275e-08
9.90793e-08
9.99032e-08
1.00793e-07
1.01746e-07
1.02756e-07
1.03824e-07
1.04942e-07
1.06109e-07
1.0732e-07
1.08574e-07
1.09867e-07
1.11197e-07
1.12561e-07
1.13956e-07
1.1538e-07
1.16831e-07
1.18306e-07
1.19802e-07
1.21315e-07
1.22844e-07
1.24385e-07
1.25934e-07
1.27488e-07
1.29041e-07
1.3059e-07
1.32128e-07
1.33651e-07
1.35151e-07
1.36621e-07
1.3805e-07
1.39432e-07
1.40752e-07
1.42e-07
1.4316e-07
1.44217e-07
1.45153e-07
1.45945e-07
1.46572e-07
1.4701e-07
1.4723e-07
1.47207e-07
1.46914e-07
1.46326e-07
1.45424e-07
1.44193e-07
1.42629e-07
1.40745e-07
1.38566e-07
1.36135e-07
1.33492e-07
1.30709e-07
1.27876e-07
1.25068e-07
1.22353e-07
1.19781e-07
1.17387e-07
1.15188e-07
1.13185e-07
1.11372e-07
1.09744e-07
1.08284e-07
1.06986e-07
1.05829e-07
1.04814e-07
1.03926e-07
1.03163e-07
1.02515e-07
1.01975e-07
1.01539e-07
1.01203e-07
1.00962e-07
1.00814e-07
1.00748e-07
1.00768e-07
1.00855e-07
1.00977e-07
1.0113e-07
1.01246e-07
1.01334e-07
1.013e-07
1.01085e-07
8.88198e-08
8.87962e-08
8.84435e-08
8.801e-08
8.7538e-08
8.70822e-08
8.67201e-08
8.64398e-08
8.62739e-08
8.62216e-08
8.62781e-08
8.64389e-08
8.66983e-08
8.70501e-08
8.74875e-08
8.80058e-08
8.85978e-08
8.92616e-08
8.99889e-08
9.07761e-08
9.1618e-08
9.25117e-08
9.34531e-08
9.44417e-08
9.54713e-08
9.65401e-08
9.76445e-08
9.87822e-08
9.99497e-08
1.01144e-07
1.02363e-07
1.03604e-07
1.04863e-07
1.06138e-07
1.07426e-07
1.08724e-07
1.10027e-07
1.11332e-07
1.12636e-07
1.13933e-07
1.15219e-07
1.1649e-07
1.17738e-07
1.18959e-07
1.20144e-07
1.21287e-07
1.22378e-07
1.23408e-07
1.24365e-07
1.25239e-07
1.26016e-07
1.26681e-07
1.27219e-07
1.27612e-07
1.27843e-07
1.27891e-07
1.27737e-07
1.27361e-07
1.26746e-07
1.25877e-07
1.24744e-07
1.23342e-07
1.21677e-07
1.19763e-07
1.17628e-07
1.15311e-07
1.12864e-07
1.10345e-07
1.07797e-07
1.05299e-07
1.02903e-07
1.00653e-07
9.85776e-08
9.66933e-08
9.50034e-08
9.35007e-08
9.21754e-08
9.10195e-08
9.00151e-08
8.91555e-08
8.84222e-08
8.7814e-08
8.73174e-08
8.69292e-08
8.66406e-08
8.6444e-08
8.6337e-08
8.63141e-08
8.63715e-08
8.65071e-08
8.67133e-08
8.69923e-08
8.7329e-08
8.76961e-08
8.80904e-08
8.84552e-08
8.87931e-08
8.90242e-08
8.90888e-08
7.93026e-08
7.94746e-08
7.93411e-08
7.91196e-08
7.88522e-08
7.8585e-08
7.83846e-08
7.82444e-08
7.81935e-08
7.82327e-08
7.8359e-08
7.85695e-08
7.88601e-08
7.92264e-08
7.96633e-08
8.01669e-08
8.07315e-08
8.13556e-08
8.20323e-08
8.27583e-08
8.35293e-08
8.43426e-08
8.51945e-08
8.60846e-08
8.7007e-08
8.79599e-08
8.894e-08
8.99446e-08
9.09702e-08
9.20138e-08
9.30727e-08
9.41437e-08
9.52235e-08
9.63089e-08
9.73963e-08
9.8482e-08
9.95619e-08
1.00632e-07
1.01687e-07
1.02723e-07
1.03734e-07
1.04714e-07
1.05658e-07
1.06557e-07
1.07406e-07
1.08194e-07
1.08915e-07
1.09556e-07
1.10109e-07
1.10562e-07
1.10901e-07
1.11116e-07
1.11192e-07
1.11115e-07
1.10872e-07
1.10448e-07
1.09831e-07
1.09011e-07
1.07981e-07
1.06738e-07
1.05286e-07
1.03633e-07
1.01798e-07
9.98061e-08
9.76936e-08
9.55018e-08
9.32788e-08
9.10747e-08
8.89252e-08
8.68794e-08
8.49705e-08
8.32226e-08
8.16488e-08
8.02535e-08
7.90331e-08
7.79772e-08
7.70752e-08
7.63183e-08
7.56911e-08
7.51869e-08
7.47904e-08
7.44995e-08
7.43032e-08
7.41981e-08
7.41767e-08
7.42326e-08
7.43637e-08
7.45653e-08
7.48343e-08
7.51692e-08
7.55641e-08
7.60208e-08
7.65272e-08
7.70609e-08
7.76178e-08
7.8151e-08
7.86587e-08
7.90717e-08
7.93323e-08
7.14529e-08
7.17475e-08
7.17631e-08
7.16855e-08
7.15568e-08
7.1416e-08
7.13206e-08
7.12681e-08
7.12848e-08
7.13726e-08
7.153e-08
7.17552e-08
7.20456e-08
7.2398e-08
7.28083e-08
7.32737e-08
7.37893e-08
7.4354e-08
7.49617e-08
7.56097e-08
7.62941e-08
7.70123e-08
7.77611e-08
7.85397e-08
7.93427e-08
8.01684e-08
8.10132e-08
8.18745e-08
8.27485e-08
8.36323e-08
8.45227e-08
8.54163e-08
8.63098e-08
8.71994e-08
8.80813e-08
8.89515e-08
8.98055e-08
9.06389e-08
9.14468e-08
9.22237e-08
9.29645e-08
9.36627e-08
9.43121e-08
9.49057e-08
9.54364e-08
9.5896e-08
9.62763e-08
9.65681e-08
9.67624e-08
9.68493e-08
9.68192e-08
9.66623e-08
9.6369e-08
9.59299e-08
9.53369e-08
9.45832e-08
9.36646e-08
9.25794e-08
9.13302e-08
8.99239e-08
8.83729e-08
8.66948e-08
8.49134e-08
8.30575e-08
8.11612e-08
7.92606e-08
7.73935e-08
7.55959e-08
7.38961e-08
7.23186e-08
7.08811e-08
6.95948e-08
6.84635e-08
6.74857e-08
6.66551e-08
6.59616e-08
6.53954e-08
6.49485e-08
6.46088e-08
6.43705e-08
6.42215e-08
6.41598e-08
6.41769e-08
6.42696e-08
6.44322e-08
6.46596e-08
6.49499e-08
6.52996e-08
6.57064e-08
6.61692e-08
6.66836e-08
6.72511e-08
6.7862e-08
6.84978e-08
6.91536e-08
6.97902e-08
7.04027e-08
7.09303e-08
7.13166e-08
6.48838e-08
6.52487e-08
6.53602e-08
6.53751e-08
6.5335e-08
6.52737e-08
6.52409e-08
6.52373e-08
6.52868e-08
6.5392e-08
6.55525e-08
6.57677e-08
6.60355e-08
6.6354e-08
6.67198e-08
6.71309e-08
6.7583e-08
6.80752e-08
6.86023e-08
6.91617e-08
6.97498e-08
7.03643e-08
7.10021e-08
7.16623e-08
7.23399e-08
7.30329e-08
7.37378e-08
7.44518e-08
7.51713e-08
7.58931e-08
7.66139e-08
7.73303e-08
7.80385e-08
7.87349e-08
7.94155e-08
8.00762e-08
8.07123e-08
8.13194e-08
8.18926e-08
8.24266e-08
8.29161e-08
8.33553e-08
8.37382e-08
8.40584e-08
8.43097e-08
8.44849e-08
8.45771e-08
8.4579e-08
8.44838e-08
8.42842e-08
8.39739e-08
8.35468e-08
8.29979e-08
8.2323e-08
8.15196e-08
8.05872e-08
7.95285e-08
7.8348e-08
7.7055e-08
7.56618e-08
7.41848e-08
7.26439e-08
7.10624e-08
6.94659e-08
6.78821e-08
6.63382e-08
6.48602e-08
6.34714e-08
6.21922e-08
6.10308e-08
5.99954e-08
5.90898e-08
5.83135e-08
5.76628e-08
5.71314e-08
5.67106e-08
5.63925e-08
5.61709e-08
5.60364e-08
5.59844e-08
5.6006e-08
5.60994e-08
5.62583e-08
5.64802e-08
5.67609e-08
5.70963e-08
5.74851e-08
5.79245e-08
5.84131e-08
5.89501e-08
5.95323e-08
6.01609e-08
6.08279e-08
6.15181e-08
6.22258e-08
6.29181e-08
6.35873e-08
6.418e-08
6.4642e-08
5.93039e-08
5.97025e-08
5.98708e-08
5.99405e-08
5.99524e-08
5.99361e-08
5.99351e-08
5.99524e-08
6.00097e-08
6.01102e-08
6.02544e-08
6.04423e-08
6.06726e-08
6.0944e-08
6.12539e-08
6.16007e-08
6.19806e-08
6.23929e-08
6.28331e-08
6.32986e-08
6.37863e-08
6.42938e-08
6.48182e-08
6.53585e-08
6.591e-08
6.64707e-08
6.7037e-08
6.76062e-08
6.81747e-08
6.87392e-08
6.92965e-08
6.98431e-08
7.03754e-08
7.08898e-08
7.13822e-08
7.18488e-08
7.22851e-08
7.26868e-08
7.30495e-08
7.33683e-08
7.36384e-08
7.38548e-08
7.40123e-08
7.41059e-08
7.41303e-08
7.40802e-08
7.39506e-08
7.37365e-08
7.34335e-08
7.30376e-08
7.25456e-08
7.19553e-08
7.12657e-08
7.0477e-08
6.95912e-08
6.86124e-08
6.7547e-08
6.64036e-08
6.51937e-08
6.39312e-08
6.26323e-08
6.13148e-08
5.99983e-08
5.87024e-08
5.74472e-08
5.6251e-08
5.51305e-08
5.40994e-08
5.31714e-08
5.2346e-08
5.16263e-08
5.10129e-08
5.05035e-08
5.00944e-08
4.97802e-08
4.95543e-08
4.94105e-08
4.93444e-08
4.93489e-08
4.94209e-08
4.95537e-08
4.9746e-08
4.99933e-08
5.02938e-08
5.06443e-08
5.10418e-08
5.14852e-08
5.19728e-08
5.25033e-08
5.30764e-08
5.36898e-08
5.43445e-08
5.50338e-08
5.57447e-08
5.64712e-08
5.71852e-08
5.78772e-08
5.84998e-08
5.9002e-08
5.4498e-08
5.49053e-08
5.51021e-08
5.51994e-08
5.52369e-08
5.5241e-08
5.52498e-08
5.52683e-08
5.53161e-08
5.5397e-08
5.55119e-08
5.56616e-08
5.58451e-08
5.60617e-08
5.63095e-08
5.65869e-08
5.68909e-08
5.72207e-08
5.75724e-08
5.79435e-08
5.83311e-08
5.87331e-08
5.91467e-08
5.95706e-08
6.00007e-08
6.04346e-08
6.08693e-08
6.13018e-08
6.17288e-08
6.21471e-08
6.25536e-08
6.2945e-08
6.33178e-08
6.36687e-08
6.3994e-08
6.429e-08
6.4553e-08
6.4779e-08
6.49641e-08
6.51044e-08
6.5196e-08
6.52347e-08
6.52167e-08
6.51382e-08
6.49957e-08
6.47857e-08
6.45052e-08
6.41514e-08
6.37225e-08
6.32172e-08
6.26351e-08
6.19769e-08
6.12446e-08
6.04413e-08
5.95716e-08
5.86418e-08
5.76599e-08
5.66353e-08
5.55795e-08
5.45049e-08
5.34252e-08
5.23545e-08
5.13074e-08
5.02977e-08
4.9339e-08
4.84427e-08
4.7619e-08
4.68755e-08
4.62208e-08
4.56511e-08
4.51669e-08
4.47676e-08
4.44508e-08
4.42133e-08
4.4051e-08
4.39592e-08
4.39333e-08
4.39702e-08
4.40649e-08
4.42152e-08
4.44162e-08
4.46673e-08
4.49651e-08
4.53084e-08
4.5695e-08
4.61226e-08
4.65904e-08
4.70972e-08
4.76422e-08
4.82253e-08
4.88448e-08
4.95014e-08
5.01896e-08
5.0898e-08
5.16205e-08
5.23326e-08
5.30237e-08
5.36514e-08
5.41675e-08
5.03086e-08
5.07074e-08
5.09127e-08
5.10184e-08
5.10628e-08
5.10699e-08
5.10735e-08
5.10799e-08
5.1107e-08
5.11587e-08
5.12367e-08
5.13419e-08
5.1474e-08
5.16327e-08
5.18162e-08
5.20235e-08
5.22518e-08
5.25006e-08
5.27662e-08
5.30464e-08
5.33386e-08
5.36407e-08
5.39502e-08
5.42656e-08
5.45832e-08
5.49008e-08
5.52154e-08
5.55243e-08
5.58244e-08
5.61127e-08
5.63864e-08
5.66425e-08
5.68779e-08
5.70895e-08
5.72743e-08
5.74291e-08
5.75506e-08
5.76358e-08
5.76815e-08
5.76845e-08
5.76422e-08
5.75515e-08
5.74098e-08
5.72148e-08
5.69645e-08
5.66571e-08
5.62914e-08
5.58665e-08
5.53825e-08
5.48401e-08
5.42408e-08
5.35872e-08
5.28829e-08
5.21321e-08
5.13406e-08
5.0515e-08
4.96632e-08
4.87938e-08
4.79163e-08
4.70409e-08
4.61781e-08
4.53382e-08
4.45313e-08
4.37668e-08
4.30532e-08
4.23975e-08
4.18058e-08
4.12822e-08
4.08315e-08
4.04494e-08
4.01355e-08
3.98887e-08
3.97071e-08
3.95884e-08
3.95296e-08
3.95272e-08
3.95783e-08
3.96805e-08
3.98306e-08
4.0027e-08
4.02664e-08
4.05483e-08
4.08705e-08
4.12322e-08
4.16318e-08
4.20677e-08
4.25394e-08
4.30458e-08
4.35867e-08
4.4162e-08
4.47705e-08
4.54127e-08
4.60838e-08
4.67739e-08
4.74767e-08
4.81707e-08
4.88444e-08
4.94597e-08
4.99708e-08
4.66197e-08
4.69988e-08
4.71985e-08
4.72993e-08
4.73377e-08
4.73363e-08
4.73249e-08
4.73108e-08
4.73104e-08
4.7328e-08
4.73654e-08
4.7424e-08
4.75038e-08
4.76047e-08
4.77254e-08
4.78651e-08
4.80215e-08
4.81939e-08
4.83792e-08
4.85754e-08
4.87801e-08
4.89913e-08
4.92068e-08
4.9425e-08
4.96427e-08
4.98578e-08
5.00676e-08
5.02695e-08
5.04609e-08
5.06391e-08
5.08015e-08
5.09457e-08
5.10689e-08
5.11686e-08
5.12423e-08
5.12874e-08
5.13014e-08
5.12819e-08
5.12267e-08
5.11336e-08
5.10007e-08
5.08262e-08
5.06086e-08
5.03468e-08
5.00401e-08
4.9688e-08
4.92905e-08
4.88482e-08
4.83624e-08
4.78347e-08
4.7268e-08
4.66653e-08
4.60307e-08
4.5369e-08
4.46855e-08
4.39862e-08
4.32779e-08
4.25676e-08
4.18629e-08
4.11714e-08
4.05006e-08
3.98578e-08
3.92498e-08
3.86826e-08
3.81615e-08
3.7691e-08
3.72743e-08
3.69138e-08
3.66119e-08
3.63646e-08
3.61714e-08
3.60314e-08
3.5943e-08
3.59047e-08
3.59145e-08
3.59699e-08
3.6069e-08
3.62103e-08
3.63917e-08
3.6612e-08
3.68691e-08
3.71628e-08
3.74916e-08
3.78552e-08
3.82522e-08
3.86817e-08
3.91433e-08
3.96363e-08
4.01605e-08
4.07161e-08
4.13021e-08
4.19189e-08
4.25622e-08
4.32233e-08
4.38958e-08
4.45605e-08
4.52056e-08
4.57964e-08
4.62895e-08
4.33458e-08
4.36978e-08
4.38825e-08
4.39695e-08
4.39939e-08
4.39765e-08
4.39444e-08
4.39053e-08
4.38744e-08
4.3856e-08
4.38525e-08
4.38653e-08
4.38947e-08
4.3941e-08
4.40031e-08
4.40805e-08
4.41711e-08
4.42744e-08
4.43877e-08
4.45092e-08
4.46368e-08
4.47685e-08
4.49025e-08
4.50373e-08
4.517e-08
4.52986e-08
4.54209e-08
4.55346e-08
4.56373e-08
4.57268e-08
4.58009e-08
4.58576e-08
4.58946e-08
4.591e-08
4.59017e-08
4.5868e-08
4.58068e-08
4.57165e-08
4.55957e-08
4.5443e-08
4.52573e-08
4.50377e-08
4.47836e-08
4.44948e-08
4.41714e-08
4.38138e-08
4.34229e-08
4.29998e-08
4.25466e-08
4.20653e-08
4.1559e-08
4.10308e-08
4.04848e-08
3.9925e-08
3.93562e-08
3.87833e-08
3.82118e-08
3.7647e-08
3.70947e-08
3.65602e-08
3.6049e-08
3.55659e-08
3.51155e-08
3.47016e-08
3.43275e-08
3.39958e-08
3.37085e-08
3.34672e-08
3.32722e-08
3.31206e-08
3.3012e-08
3.29455e-08
3.29203e-08
3.29352e-08
3.29889e-08
3.30799e-08
3.3207e-08
3.33691e-08
3.35651e-08
3.37942e-08
3.4055e-08
3.43476e-08
3.46711e-08
3.50254e-08
3.54095e-08
3.58228e-08
3.62651e-08
3.67359e-08
3.72352e-08
3.77632e-08
3.83191e-08
3.89031e-08
3.95115e-08
4.01365e-08
4.07716e-08
4.13998e-08
4.20088e-08
4.25669e-08
4.3033e-08
4.04231e-08
4.07436e-08
4.09073e-08
4.09753e-08
4.09806e-08
4.09435e-08
4.08879e-08
4.08223e-08
4.07606e-08
4.07071e-08
4.06646e-08
4.06347e-08
4.06179e-08
4.06148e-08
4.06245e-08
4.06465e-08
4.06795e-08
4.07227e-08
4.0774e-08
4.08317e-08
4.08939e-08
4.09591e-08
4.10254e-08
4.10916e-08
4.1155e-08
4.12141e-08
4.12669e-08
4.13113e-08
4.13455e-08
4.13675e-08
4.13757e-08
4.13683e-08
4.13436e-08
4.13002e-08
4.12365e-08
4.11512e-08
4.10429e-08
4.09108e-08
4.07538e-08
4.05711e-08
4.03625e-08
4.01274e-08
3.98661e-08
3.95787e-08
3.9266e-08
3.89287e-08
3.8568e-08
3.81856e-08
3.77835e-08
3.73638e-08
3.69294e-08
3.64831e-08
3.60284e-08
3.55687e-08
3.51079e-08
3.46499e-08
3.41988e-08
3.37587e-08
3.33336e-08
3.29275e-08
3.2544e-08
3.21866e-08
3.1858e-08
3.15609e-08
3.12972e-08
3.10684e-08
3.08754e-08
3.07206e-08
3.06018e-08
3.05175e-08
3.04673e-08
3.04508e-08
3.04673e-08
3.05162e-08
3.05967e-08