/*--------------------------------*- C++ -*----------------------------------*\
| =========                 |                                                 |
| \\      /  F ield         | OpenFOAM: The Open Source CFD Toolbox           |
|  \\    /   O peration     | Version:  2.3.x                                 |
|   \\  /    A nd           | Web:      www.OpenFOAM.org                      |
|    \\/     M anipulation  |                                                 |
\*---------------------------------------------------------------------------*/
FoamFile
{
    version     2.0;
    format      ascii;
    class       volSymmTensorField;
    location    "0";
    object      R;
}
// * * * * * * * * * * * * * * * * * * * * * * * * * * * * * * * * * * * * * //

dimensions      [0 2 -2 0 0 0 0];

internalField   nonuniform List<symmTensor> 
14751
(
(2.60044e-09 1.78365e-11 4.05016e-41 2.60041e-09 8.05973e-36 2.60043e-09)
(2.73255e-09 1.91054e-11 5.18165e-35 2.73252e-09 -6.64838e-32 2.73253e-09)
(2.87538e-09 2.05098e-11 -1.81056e-33 2.87536e-09 -2.35397e-33 2.87537e-09)
(3.02402e-09 2.19298e-11 3.59638e-33 3.02401e-09 2.97941e-33 3.02401e-09)
(3.18092e-09 2.34379e-11 -1.80024e-33 3.18091e-09 2.18805e-33 3.18091e-09)
(3.34562e-09 2.49758e-11 2.62231e-35 3.34561e-09 -4.97765e-33 3.34561e-09)
(3.51521e-09 2.65265e-11 -7.52955e-35 3.51521e-09 -1.10776e-31 3.51521e-09)
(3.69224e-09 2.81131e-11 1.15693e-33 3.69225e-09 6.66735e-35 3.69225e-09)
(3.87548e-09 2.97037e-11 2.4395e-35 3.8755e-09 -2.83035e-33 3.87549e-09)
(4.06672e-09 3.13204e-11 3.08453e-36 4.06674e-09 -6.10813e-34 4.06673e-09)
(4.26407e-09 3.29351e-11 1.08325e-35 4.26411e-09 -1.54666e-31 4.26409e-09)
(4.4697e-09 3.45661e-11 -1.08151e-35 4.46975e-09 -9.05359e-36 4.46972e-09)
(4.67884e-09 3.61601e-11 2.43914e-35 4.67889e-09 3.40547e-31 4.67886e-09)
(4.89229e-09 3.77256e-11 -1.43226e-34 4.89234e-09 3.035e-32 4.89231e-09)
(5.10829e-09 3.92464e-11 -3.28537e-33 5.10835e-09 -6.83256e-32 5.10831e-09)
(5.32577e-09 4.07152e-11 2.34501e-34 5.32584e-09 -5.26023e-33 5.3258e-09)
(5.54551e-09 4.2144e-11 1.71284e-33 5.54558e-09 9.85616e-32 5.54554e-09)
(5.76518e-09 4.35146e-11 -3.11121e-35 5.76525e-09 -5.49084e-32 5.76521e-09)
(5.9863e-09 4.48503e-11 -3.33484e-35 5.98637e-09 -4.59138e-31 5.98633e-09)
(6.20812e-09 4.61481e-11 1.72001e-35 6.2082e-09 -7.15191e-32 6.20815e-09)
(6.43175e-09 4.74264e-11 -2.43745e-34 6.43183e-09 1.78166e-34 6.43179e-09)
(6.65678e-09 4.86864e-11 1.92796e-34 6.65686e-09 7.28343e-31 6.65681e-09)
(6.8845e-09 4.99459e-11 -2.21561e-34 6.88457e-09 -8.98148e-31 6.88453e-09)
(7.11283e-09 5.11894e-11 2.75728e-34 7.11291e-09 1.0799e-30 7.11287e-09)
(7.3441e-09 5.24472e-11 2.2428e-34 7.34417e-09 -1.14677e-31 7.34413e-09)
(7.5775e-09 5.37125e-11 -2.71493e-34 7.57757e-09 7.97655e-35 7.57753e-09)
(7.81357e-09 5.49969e-11 3.51368e-35 7.81364e-09 -7.29285e-40 7.8136e-09)
(8.0519e-09 5.62982e-11 3.11834e-35 8.05197e-09 -1.12771e-30 8.05193e-09)
(8.29297e-09 5.76259e-11 3.10098e-34 8.29303e-09 -7.52804e-32 8.293e-09)
(8.53677e-09 5.89816e-11 -2.04089e-35 8.53683e-09 7.78423e-32 8.5368e-09)
(8.78304e-09 6.03652e-11 -2.25045e-34 8.7831e-09 -8.23675e-32 8.78307e-09)
(9.03198e-09 6.17815e-11 -1.34295e-34 9.03203e-09 -5.44692e-34 9.032e-09)
(9.28331e-09 6.32288e-11 -2.95475e-37 9.28336e-09 -6.22436e-31 9.28333e-09)
(9.53711e-09 6.47101e-11 -1.74541e-34 9.53716e-09 -6.90747e-31 9.53713e-09)
(9.79325e-09 6.62244e-11 9.20193e-36 9.79329e-09 -4.76881e-32 9.79327e-09)
(1.00513e-08 6.77701e-11 4.55708e-35 1.00514e-08 -7.35786e-31 1.00513e-08)
(1.03124e-08 6.93589e-11 -3.48942e-35 1.03125e-08 8.06748e-31 1.03125e-08)
(1.05758e-08 7.09816e-11 5.62779e-36 1.05758e-08 -2.16474e-34 1.05758e-08)
(1.08411e-08 7.26376e-11 7.57361e-38 1.08411e-08 -5.30169e-32 1.08411e-08)
(1.11077e-08 7.43217e-11 -2.99385e-36 1.11077e-08 2.68572e-32 1.11077e-08)
(1.13766e-08 7.60442e-11 -7.63817e-34 1.13766e-08 -3.36554e-34 1.13766e-08)
(1.16465e-08 7.77918e-11 -6.50358e-33 1.16465e-08 -2.07045e-32 1.16465e-08)
(1.19151e-08 7.95471e-11 5.96348e-34 1.19151e-08 -2.33267e-39 1.19151e-08)
(1.21832e-08 8.13149e-11 -1.70365e-33 1.21832e-08 1.84569e-33 1.21832e-08)
(1.24491e-08 8.30786e-11 2.03209e-34 1.24491e-08 1.42431e-32 1.24491e-08)
(1.27119e-08 8.48341e-11 -1.93944e-34 1.27119e-08 -2.45484e-31 1.27119e-08)
(1.2971e-08 8.6575e-11 -1.81832e-33 1.2971e-08 -1.06723e-31 1.2971e-08)
(1.3226e-08 8.82974e-11 2.04825e-34 1.3226e-08 1.08366e-31 1.3226e-08)
(1.34763e-08 8.99962e-11 -3.71818e-37 1.34763e-08 1.20878e-37 1.34763e-08)
(1.37201e-08 9.16557e-11 1.93322e-34 1.37201e-08 -1.54979e-35 1.37201e-08)
(1.39563e-08 9.32659e-11 1.95651e-33 1.39563e-08 3.00576e-32 1.39563e-08)
(1.41843e-08 9.48203e-11 -1.99299e-34 1.41843e-08 -3.55316e-33 1.41843e-08)
(1.44021e-08 9.63019e-11 6.3451e-36 1.44021e-08 -1.35283e-32 1.44021e-08)
(1.46085e-08 9.7701e-11 -6.64114e-36 1.46085e-08 4.20349e-34 1.46085e-08)
(1.48023e-08 9.90059e-11 1.47797e-35 1.48023e-08 2.64849e-32 1.48023e-08)
(1.49817e-08 1.00202e-10 -2.17252e-35 1.49817e-08 -1.31763e-32 1.49817e-08)
(1.51447e-08 1.01272e-10 -1.76563e-34 1.51447e-08 -7.06444e-35 1.51447e-08)
(1.52895e-08 1.02201e-10 -2.28115e-33 1.52895e-08 1.61586e-33 1.52895e-08)
(1.54141e-08 1.02971e-10 -2.60478e-33 1.54141e-08 1.48188e-33 1.54141e-08)
(1.55163e-08 1.03563e-10 -8.54251e-33 1.55163e-08 4.82277e-32 1.55163e-08)
(1.55868e-08 1.039e-10 6.80181e-34 1.55868e-08 -2.20514e-33 1.55868e-08)
(1.56133e-08 1.03876e-10 9.78222e-34 1.56133e-08 -2.6289e-33 1.56133e-08)
(1.55811e-08 1.03365e-10 1.73527e-32 1.55811e-08 -6.2903e-31 1.55811e-08)
(1.54738e-08 1.02229e-10 -1.07043e-33 1.54738e-08 -5.35555e-31 1.54738e-08)
(1.52715e-08 1.00307e-10 4.03036e-35 1.52716e-08 4.85334e-31 1.52715e-08)
(1.49487e-08 9.73942e-11 1.70538e-34 1.49488e-08 2.52027e-39 1.49487e-08)
(1.44786e-08 9.32913e-11 3.96413e-33 1.44787e-08 -4.5623e-32 1.44787e-08)
(1.38382e-08 8.78576e-11 -2.76131e-34 1.38383e-08 4.19756e-32 1.38383e-08)
(1.30167e-08 8.10856e-11 -1.74141e-33 1.30169e-08 5.27545e-34 1.30168e-08)
(1.20171e-08 7.31073e-11 -1.44617e-33 1.20173e-08 1.98638e-31 1.20172e-08)
(1.08679e-08 6.42777e-11 1.3852e-33 1.0868e-08 -2.97868e-34 1.08679e-08)
(9.62228e-09 5.51232e-11 -2.71721e-35 9.6224e-09 -9.80742e-33 9.62233e-09)
(8.35136e-09 4.62342e-11 -2.647e-37 8.35146e-09 -9.88653e-32 8.3514e-09)
(7.12837e-09 3.81157e-11 -4.8085e-35 7.12844e-09 -4.32584e-32 7.1284e-09)
(6.01214e-09 3.10748e-11 -6.11471e-34 6.01219e-09 2.93902e-33 6.01216e-09)
(5.03989e-09 2.5219e-11 3.15084e-35 5.03993e-09 -2.4548e-33 5.03991e-09)
(4.22673e-09 2.05123e-11 1.16964e-37 4.22675e-09 -5.63215e-32 4.22674e-09)
(3.56876e-09 1.68463e-11 1.988e-37 3.56877e-09 -6.84099e-32 3.56877e-09)
(3.05501e-09 1.41009e-11 2.12116e-35 3.05502e-09 1.04877e-32 3.05501e-09)
(2.66346e-09 1.21058e-11 -5.02459e-34 2.66346e-09 -9.12567e-33 2.66346e-09)
(2.37411e-09 1.07132e-11 -4.45878e-34 2.3741e-09 8.1998e-32 2.37411e-09)
(2.16338e-09 9.76542e-12 -4.11221e-34 2.16337e-09 -2.19329e-34 2.16337e-09)
(2.01231e-09 9.14581e-12 -2.73942e-35 2.0123e-09 1.15916e-32 2.01231e-09)
(1.90447e-09 8.75744e-12 2.09922e-35 1.90446e-09 -2.27305e-32 1.90447e-09)
(1.82882e-09 8.54265e-12 -3.41555e-34 1.82881e-09 1.11257e-32 1.82881e-09)
(1.77888e-09 8.46859e-12 -3.98465e-34 1.77886e-09 1.96058e-31 1.77887e-09)
(1.75023e-09 8.5148e-12 3.41422e-34 1.75021e-09 -6.35119e-33 1.75022e-09)
(1.73989e-09 8.66964e-12 2.25434e-35 1.73987e-09 6.47123e-33 1.73988e-09)
(1.74569e-09 8.92458e-12 -0 1.74566e-09 -0 1.74567e-09)
(1.76596e-09 9.276e-12 5.16616e-35 1.76593e-09 -3.6622e-33 1.76595e-09)
(1.79979e-09 9.72201e-12 -8.14329e-34 1.79977e-09 3.1691e-33 1.79978e-09)
(1.84602e-09 1.02582e-11 -5.32383e-35 1.84599e-09 2.51076e-31 1.84601e-09)
(1.90411e-09 1.08898e-11 -6.212e-35 1.90408e-09 9.94822e-34 1.9041e-09)
(1.97394e-09 1.16136e-11 2.48525e-36 1.9739e-09 -6.28207e-33 1.97392e-09)
(2.05403e-09 1.24274e-11 1.02111e-35 2.054e-09 4.29468e-33 2.05401e-09)
(2.14535e-09 1.3341e-11 -2.3004e-35 2.14532e-09 1.3839e-31 2.14533e-09)
(2.24532e-09 1.43254e-11 3.01754e-34 2.24528e-09 1.32454e-33 2.2453e-09)
(2.3537e-09 1.53834e-11 1.41967e-35 2.35366e-09 1.14586e-33 2.35368e-09)
(2.47028e-09 1.65602e-11 -2.6473e-37 2.47024e-09 3.11067e-44 2.47026e-09)
(4.85539e-08 1.18035e-09 -1.80488e-31 4.85493e-08 5.45652e-34 4.85515e-08)
(5.09632e-08 1.26051e-09 6.74703e-30 5.09588e-08 4.09809e-30 5.0961e-08)
(5.35555e-08 1.34768e-09 5.00681e-31 5.35517e-08 -3.3617e-31 5.35535e-08)
(5.62388e-08 1.43629e-09 -4.08137e-31 5.62359e-08 4.25601e-31 5.62373e-08)
(5.90584e-08 1.52924e-09 -2.95537e-31 5.90563e-08 2.51573e-29 5.90573e-08)
(6.20056e-08 1.6245e-09 5.23335e-31 6.20046e-08 -2.03409e-29 6.20051e-08)
(6.50275e-08 1.72059e-09 3.64424e-29 6.50276e-08 6.79617e-30 6.50275e-08)
(6.81561e-08 1.81841e-09 2.53968e-31 6.81573e-08 -2.1767e-33 6.81567e-08)
(7.13735e-08 1.91667e-09 -4.04525e-29 7.13759e-08 2.08081e-31 7.13747e-08)
(7.47229e-08 2.01731e-09 -9.2652e-31 7.47265e-08 9.24458e-30 7.47247e-08)
(7.81709e-08 2.1186e-09 -4.50529e-29 7.81757e-08 -1.1084e-29 7.81733e-08)
(8.17557e-08 2.22192e-09 1.41048e-30 8.17616e-08 7.96107e-31 8.17587e-08)
(8.53991e-08 2.32407e-09 4.92702e-29 8.54061e-08 -1.94994e-29 8.54027e-08)
(8.91172e-08 2.42564e-09 1.17608e-30 8.91253e-08 1.83346e-31 8.91213e-08)
(9.28794e-08 2.52562e-09 -4.8981e-30 9.28884e-08 -6.50759e-29 9.2884e-08)
(9.66697e-08 2.62359e-09 5.03301e-31 9.66794e-08 -4.95299e-30 9.66747e-08)
(1.00499e-07 2.72023e-09 5.10248e-30 1.00509e-07 4.86866e-31 1.00504e-07)
(1.04329e-07 2.81449e-09 -4.3629e-30 1.0434e-07 -3.59894e-31 1.04335e-07)
(1.08185e-07 2.90771e-09 -2.74663e-29 1.08196e-07 2.10614e-29 1.08191e-07)
(1.12056e-07 2.99976e-09 -1.5206e-30 1.12068e-07 8.33638e-30 1.12062e-07)
(1.15959e-07 3.09167e-09 2.30846e-30 1.15971e-07 1.3846e-32 1.15965e-07)
(1.1989e-07 3.18358e-09 3.02514e-29 1.19902e-07 -2.80539e-29 1.19896e-07)
(1.23867e-07 3.27648e-09 -3.59548e-29 1.23878e-07 3.03352e-29 1.23873e-07)
(1.27858e-07 3.36946e-09 4.33928e-29 1.2787e-07 1.67833e-28 1.27864e-07)
(1.319e-07 3.46426e-09 -6.68411e-30 1.31912e-07 1.13624e-28 1.31906e-07)
(1.35982e-07 3.56054e-09 3.76354e-31 1.35993e-07 -1.54713e-29 1.35988e-07)
(1.40112e-07 3.65893e-09 -3.29539e-30 1.40123e-07 1.46711e-28 1.40117e-07)
(1.44284e-07 3.75935e-09 -3.84024e-29 1.44294e-07 5.98727e-29 1.44289e-07)
(1.48504e-07 3.86223e-09 1.92286e-30 1.48514e-07 -9.90205e-30 1.48509e-07)
(1.52774e-07 3.96777e-09 1.85842e-30 1.52783e-07 1.0162e-29 1.52779e-07)
(1.57089e-07 4.07593e-09 -2.13701e-30 1.57098e-07 1.59968e-28 1.57094e-07)
(1.61452e-07 4.18695e-09 -1.5417e-30 1.61461e-07 -1.78049e-28 1.61457e-07)
(1.6586e-07 4.30079e-09 -2.16541e-29 1.65868e-07 -1.14379e-28 1.65864e-07)
(1.70313e-07 4.41759e-09 -1.93224e-29 1.7032e-07 -6.25165e-29 1.70317e-07)
(1.74808e-07 4.53725e-09 -1.06427e-30 1.74815e-07 -4.18188e-31 1.74811e-07)
(1.79341e-07 4.65974e-09 -1.96892e-29 1.79347e-07 3.54181e-29 1.79344e-07)
(1.83929e-07 4.78575e-09 2.62312e-29 1.83935e-07 -4.20808e-29 1.83932e-07)
(1.88559e-07 4.91478e-09 -2.72141e-30 1.88564e-07 1.07746e-28 1.88561e-07)
(1.93224e-07 5.04671e-09 -1.07208e-30 1.93229e-07 -4.89124e-31 1.93227e-07)
(1.97921e-07 5.18138e-09 7.56901e-31 1.97925e-07 2.48942e-31 1.97923e-07)
(2.02658e-07 5.31922e-09 -8.7288e-32 2.02661e-07 3.35174e-30 2.02659e-07)
(2.07413e-07 5.45944e-09 -2.29258e-31 2.07416e-07 -5.60659e-30 2.07415e-07)
(2.12151e-07 5.60065e-09 2.20457e-32 2.12153e-07 3.48417e-30 2.12152e-07)
(2.16877e-07 5.74314e-09 1.46817e-31 2.16879e-07 -5.56153e-29 2.16878e-07)
(2.21569e-07 5.88593e-09 -4.40464e-31 2.2157e-07 -5.6307e-29 2.21569e-07)
(2.26212e-07 6.02854e-09 -8.1603e-30 2.26213e-07 1.18469e-29 2.26213e-07)
(2.30795e-07 6.17045e-09 -2.41359e-30 2.30795e-07 6.46758e-30 2.30795e-07)
(2.35311e-07 6.31141e-09 4.04892e-30 2.3531e-07 -5.19398e-30 2.35311e-07)
(2.39746e-07 6.45092e-09 -3.47866e-31 2.39746e-07 -1.11515e-30 2.39746e-07)
(2.44076e-07 6.58785e-09 7.68633e-32 2.44075e-07 -2.22048e-31 2.44075e-07)
(2.4828e-07 6.72139e-09 1.00202e-30 2.48279e-07 -8.81567e-30 2.48279e-07)
(2.52338e-07 6.85065e-09 -2.18065e-31 2.52336e-07 -3.42553e-32 2.52337e-07)
(2.56225e-07 6.97462e-09 -3.78547e-31 2.56223e-07 -1.80513e-30 2.56224e-07)
(2.59921e-07 7.09245e-09 1.26291e-31 2.59919e-07 2.67402e-29 2.5992e-07)
(2.634e-07 7.20313e-09 7.64409e-31 2.63397e-07 1.90874e-30 2.63399e-07)
(2.66633e-07 7.30548e-09 -4.92547e-31 2.66631e-07 5.37455e-29 2.66632e-07)
(2.69587e-07 7.39817e-09 6.10061e-32 2.69584e-07 -1.26713e-31 2.69585e-07)
(2.72226e-07 7.4799e-09 1.49306e-31 2.72223e-07 -2.70653e-30 2.72225e-07)
(2.74512e-07 7.54926e-09 3.17727e-31 2.7451e-07 -5.23048e-30 2.74511e-07)
(2.76405e-07 7.60491e-09 2.2081e-30 2.76403e-07 7.20252e-30 2.76404e-07)
(2.77731e-07 7.64036e-09 -2.14332e-31 2.7773e-07 -3.83698e-32 2.7773e-07)
(2.78267e-07 7.6471e-09 -2.08514e-30 2.78267e-07 8.21386e-29 2.78267e-07)
(2.77764e-07 7.61559e-09 -4.19819e-29 2.77766e-07 2.35493e-29 2.77765e-07)
(2.75932e-07 7.53523e-09 -3.34766e-29 2.75936e-07 -3.81805e-29 2.75934e-07)
(2.72415e-07 7.39339e-09 3.80759e-29 2.72422e-07 -3.27664e-29 2.72419e-07)
(2.66761e-07 7.17422e-09 -1.66536e-30 2.66772e-07 -4.01688e-29 2.66767e-07)
(2.58503e-07 6.863e-09 -3.15289e-30 2.58518e-07 -9.99012e-29 2.58511e-07)
(2.47239e-07 6.4498e-09 3.04436e-30 2.47258e-07 -4.18784e-30 2.47249e-07)
(2.32776e-07 5.93529e-09 6.58635e-31 2.32798e-07 4.38887e-30 2.32787e-07)
(2.15161e-07 5.33144e-09 2.62943e-29 2.15185e-07 -5.94878e-29 2.15173e-07)
(1.94888e-07 4.66716e-09 -6.61807e-31 1.94912e-07 3.53714e-29 1.949e-07)
(1.72882e-07 3.98335e-09 -2.08892e-30 1.72904e-07 2.32592e-29 1.72893e-07)
(1.50383e-07 3.32455e-09 -3.1303e-29 1.50401e-07 4.56204e-30 1.50392e-07)
(1.28682e-07 2.72754e-09 -2.65437e-29 1.28697e-07 3.33321e-30 1.28689e-07)
(1.08838e-07 2.21362e-09 -1.80739e-30 1.08848e-07 -3.42356e-31 1.08843e-07)
(9.15354e-08 1.78892e-09 1.39377e-30 9.15419e-08 2.83284e-31 9.15387e-08)
(7.70576e-08 1.44953e-09 1.40531e-29 7.70612e-08 3.07135e-30 7.70593e-08)
(6.53366e-08 1.18651e-09 1.18876e-29 6.53381e-08 -1.31987e-29 6.53373e-08)
(5.61612e-08 9.9018e-10 -7.51583e-31 5.61612e-08 -1.22668e-30 5.61612e-08)
(4.91304e-08 8.47479e-10 1.0325e-30 4.91294e-08 1.024e-30 4.91299e-08)
(4.39127e-08 7.47943e-10 -7.39279e-30 4.3911e-08 -4.59715e-30 4.39118e-08)
(4.00981e-08 6.80093e-10 -1.5597e-31 4.00959e-08 -2.26131e-29 4.00969e-08)
(3.73574e-08 6.35426e-10 -6.54913e-31 3.73548e-08 -2.05752e-29 3.73561e-08)
(3.54011e-08 6.07058e-10 1.11217e-30 3.53981e-08 -1.62617e-30 3.53996e-08)
(3.40324e-08 5.9079e-10 1.23966e-31 3.40291e-08 1.45226e-30 3.40307e-08)
(3.31354e-08 5.8428e-10 -1.18539e-29 3.31318e-08 -1.20544e-29 3.31335e-08)
(3.26302e-08 5.86043e-10 -2.76556e-31 3.26263e-08 -4.57106e-32 3.26282e-08)
(3.24629e-08 5.95186e-10 -2.5867e-31 3.24587e-08 1.70933e-30 3.24607e-08)
(3.25937e-08 6.11103e-10 -2.90768e-32 3.25892e-08 -8.5745e-31 3.25914e-08)
(3.29925e-08 6.33432e-10 1.57761e-31 3.29877e-08 -4.81927e-31 3.29901e-08)
(3.36425e-08 6.62029e-10 6.10627e-31 3.36375e-08 3.10111e-29 3.36399e-08)
(3.45223e-08 6.9663e-10 -1.45234e-29 3.4517e-08 -1.50211e-29 3.45196e-08)
(3.56218e-08 7.37326e-10 -8.0616e-31 3.56163e-08 -3.30679e-29 3.5619e-08)
(3.69372e-08 7.84118e-10 3.04547e-31 3.69316e-08 3.4354e-29 3.69343e-08)
(3.84402e-08 8.36526e-10 1.91928e-31 3.84345e-08 -5.32575e-31 3.84373e-08)
(4.01475e-08 8.95155e-10 -9.36794e-30 4.01418e-08 -7.75743e-30 4.01446e-08)
(4.2009e-08 9.58314e-10 -4.86302e-31 4.20034e-08 1.81505e-29 4.20062e-08)
(4.4018e-08 1.02649e-09 -6.87855e-32 4.40125e-08 2.90104e-33 4.40152e-08)
(4.61669e-08 1.10006e-09 -3.40136e-33 4.61613e-08 1.44222e-34 4.61641e-08)
(1.9407e-07 8.09055e-09 1.2642e-30 1.94021e-07 -1.6537e-34 1.94045e-07)
(2.03486e-07 8.63894e-09 -4.67453e-29 2.0344e-07 3.30238e-29 2.03463e-07)
(2.13768e-07 9.24397e-09 2.53794e-30 2.1373e-07 2.14414e-28 2.13749e-07)
(2.24624e-07 9.8843e-09 3.44397e-30 2.24595e-07 1.97512e-28 2.2461e-07)
(2.36224e-07 1.05724e-08 -6.93592e-28 2.36204e-07 1.79693e-28 2.36214e-07)
(2.48499e-07 1.13033e-08 7.2786e-28 2.48491e-07 1.35332e-28 2.48495e-07)
(2.61199e-07 1.20615e-08 -2.55047e-28 2.61203e-07 2.54608e-28 2.61201e-07)
(2.74459e-07 1.28562e-08 2.94415e-31 2.74477e-07 -1.05003e-28 2.74469e-07)
(2.88174e-07 1.36803e-08 2.95682e-28 2.88206e-07 -4.61293e-30 2.88191e-07)
(3.02321e-07 1.45331e-08 9.21355e-28 3.02367e-07 7.4655e-29 3.02345e-07)
(3.16924e-07 1.54164e-08 -6.76947e-28 3.16985e-07 -6.98918e-29 3.16955e-07)
(3.32166e-07 1.63462e-08 2.40729e-29 3.32241e-07 4.67231e-31 3.32205e-07)
(3.4776e-07 1.7299e-08 -3.6675e-28 3.4785e-07 -1.84301e-28 3.47806e-07)
(3.63784e-07 1.82813e-08 -1.49693e-29 3.63888e-07 -4.28853e-29 3.63837e-07)
(3.80095e-07 1.92834e-08 -1.15887e-27 3.8021e-07 5.30724e-28 3.80154e-07)
(3.96636e-07 2.03019e-08 -4.07277e-29 3.96763e-07 -7.11517e-31 3.96701e-07)
(4.13423e-07 2.13408e-08 2.05157e-30 4.1356e-07 -5.05326e-29 4.13493e-07)
(4.30311e-07 2.23905e-08 8.5566e-30 4.30457e-07 1.74382e-27 4.30385e-07)
(4.47375e-07 2.34599e-08 1.67321e-28 4.47527e-07 -1.57862e-27 4.47453e-07)
(4.64566e-07 2.45476e-08 7.00716e-29 4.64724e-07 -2.31856e-27 4.64647e-07)
(4.81933e-07 2.56602e-08 -1.66633e-29 4.82095e-07 -2.33677e-27 4.82015e-07)
(4.99445e-07 2.67972e-08 -1.65896e-28 4.9961e-07 -7.72385e-28 4.99529e-07)
(5.17159e-07 2.79663e-08 2.69529e-28 5.17326e-07 3.56538e-27 5.17244e-07)
(5.34953e-07 2.91588e-08 1.51717e-27 5.35119e-07 -1.93021e-27 5.35037e-07)
(5.52948e-07 3.03877e-08 8.36477e-28 5.53112e-07 -6.21887e-28 5.53031e-07)
(5.71098e-07 3.16503e-08 -8.72845e-29 5.71259e-07 1.05278e-28 5.7118e-07)
(5.8942e-07 3.29504e-08 1.13072e-27 5.89578e-07 -2.99094e-27 5.895e-07)
(6.07894e-07 3.42873e-08 2.51667e-28 6.08047e-07 5.82742e-28 6.07971e-07)
(6.26532e-07 3.5664e-08 -8.47565e-29 6.2668e-07 1.82428e-28 6.26607e-07)
(6.45333e-07 3.70813e-08 1.38004e-28 6.45474e-07 -3.75561e-29 6.45405e-07)
(6.64281e-07 3.8539e-08 1.05026e-27 6.64415e-07 -3.72866e-27 6.64349e-07)
(6.83369e-07 4.00373e-08 -1.37892e-27 6.83495e-07 4.12465e-27 6.83433e-07)
(7.026e-07 4.1578e-08 -8.37697e-28 7.02718e-07 1.52992e-27 7.0266e-07)
(7.21951e-07 4.31584e-08 -4.40149e-28 7.22061e-07 1.02444e-27 7.22007e-07)
(7.41423e-07 4.47802e-08 5.1454e-29 7.41523e-07 1.26758e-28 7.41473e-07)
(7.60994e-07 4.64411e-08 1.54278e-28 7.61085e-07 2.1233e-27 7.6104e-07)
(7.80719e-07 4.81474e-08 -1.89336e-28 7.808e-07 1.09908e-27 7.8076e-07)
(8.00557e-07 4.98961e-08 7.9073e-28 8.00629e-07 8.70001e-28 8.00593e-07)
(8.20476e-07 5.16833e-08 -5.9906e-29 8.20537e-07 1.4508e-28 8.20507e-07)
(8.4046e-07 5.35081e-08 1.58655e-30 8.40512e-07 1.73362e-27 8.40487e-07)
(8.60519e-07 5.53716e-08 1.6913e-29 8.60561e-07 1.19411e-28 8.6054e-07)
(8.8059e-07 5.72682e-08 -4.25747e-29 8.80623e-07 -6.69249e-29 8.80607e-07)
(9.00542e-07 5.91817e-08 -4.74028e-30 9.00565e-07 9.61647e-28 9.00553e-07)
(9.20374e-07 6.11121e-08 -4.74564e-28 9.20386e-07 4.15238e-28 9.2038e-07)
(9.40031e-07 6.30527e-08 -4.14718e-28 9.40035e-07 -7.63418e-29 9.40033e-07)
(9.59436e-07 6.49923e-08 1.10557e-28 9.59431e-07 1.54875e-28 9.59433e-07)
(9.78547e-07 6.69247e-08 2.60235e-29 9.78533e-07 1.25507e-28 9.7854e-07)
(9.97318e-07 6.88434e-08 -3.73726e-29 9.97295e-07 -9.88236e-29 9.97307e-07)
(1.01567e-06 7.07367e-08 -4.59448e-30 1.01564e-06 -1.35133e-30 1.01565e-06)
(1.03355e-06 7.25959e-08 -2.66488e-30 1.03351e-06 -4.11088e-30 1.03353e-06)
(1.05088e-06 7.44107e-08 -7.72557e-29 1.05083e-06 3.74618e-29 1.05085e-06)
(1.06757e-06 7.61671e-08 4.26638e-30 1.06752e-06 2.47377e-28 1.06755e-06)
(1.08354e-06 7.78528e-08 1.18214e-30 1.08348e-06 7.69926e-30 1.08351e-06)
(1.0987e-06 7.94548e-08 2.87376e-28 1.09863e-06 -2.0481e-28 1.09867e-06)
(1.11294e-06 8.09561e-08 3.03774e-29 1.11286e-06 1.14325e-29 1.1129e-06)
(1.12614e-06 8.23458e-08 6.2055e-28 1.12607e-06 -4.05894e-28 1.12611e-06)
(1.13816e-06 8.35984e-08 -3.41836e-29 1.13809e-06 5.35415e-29 1.13813e-06)
(1.14886e-06 8.46997e-08 -3.43577e-29 1.14879e-06 -1.14186e-28 1.14883e-06)
(1.15806e-06 8.56273e-08 -5.78359e-29 1.15799e-06 8.56122e-28 1.15803e-06)
(1.1656e-06 8.63712e-08 6.66579e-29 1.16554e-06 -1.54945e-27 1.16557e-06)
(1.17066e-06 8.68269e-08 4.5473e-29 1.17062e-06 -4.54921e-29 1.17064e-06)
(1.17243e-06 8.68962e-08 1.32825e-27 1.17241e-06 -5.07191e-28 1.17242e-06)
(1.16993e-06 8.64606e-08 2.5584e-28 1.16994e-06 3.58403e-28 1.16993e-06)
(1.16196e-06 8.53847e-08 -8.80633e-28 1.16202e-06 9.48639e-28 1.16199e-06)
(1.14711e-06 8.35122e-08 -4.99801e-28 1.14722e-06 7.41418e-28 1.14717e-06)
(1.12358e-06 8.06537e-08 -9.54475e-28 1.12376e-06 4.25817e-28 1.12367e-06)
(1.08949e-06 7.66402e-08 -2.27599e-27 1.08974e-06 7.37989e-28 1.08962e-06)
(1.04325e-06 7.13759e-08 -4.72943e-29 1.04357e-06 -1.13987e-28 1.04341e-06)
(9.83931e-07 6.48967e-08 5.93074e-29 9.84307e-07 -1.01919e-27 9.8412e-07)
(9.11643e-07 5.74009e-08 -1.85016e-27 9.1205e-07 2.1794e-28 9.11847e-07)
(8.28178e-07 4.92906e-08 1.42618e-27 8.28582e-07 -2.57938e-28 8.2838e-07)
(7.3713e-07 4.11115e-08 1.13684e-27 7.37499e-07 -1.61781e-28 7.37313e-07)
(6.43456e-07 3.34232e-08 1.85863e-28 6.43763e-07 6.3991e-29 6.43608e-07)
(5.52507e-07 2.66557e-08 3.00173e-28 5.52742e-07 2.83123e-29 5.52623e-07)
(4.68862e-07 2.10188e-08 5.67875e-29 4.69026e-07 -1.883e-30 4.68943e-07)
(3.9563e-07 1.65204e-08 -4.44616e-29 3.95734e-07 1.5219e-30 3.95681e-07)
(3.34172e-07 1.30482e-08 -1.1767e-28 3.3423e-07 3.17098e-29 3.342e-07)
(2.84265e-07 1.04413e-08 4.90114e-28 2.84291e-07 1.69984e-28 2.84277e-07)
(2.44969e-07 8.54386e-09 2.87453e-29 2.44973e-07 -2.12375e-29 2.44971e-07)
(2.14552e-07 7.18527e-09 -2.2106e-29 2.14541e-07 5.4391e-30 2.14546e-07)
(1.91576e-07 6.23649e-09 4.42978e-29 1.91555e-07 -3.39451e-28 1.91565e-07)
(1.74537e-07 5.58589e-09 3.25783e-28 1.74509e-07 1.37959e-28 1.74523e-07)
(1.62085e-07 5.14687e-09 2.85794e-28 1.62052e-07 4.30727e-28 1.62069e-07)
(1.53008e-07 4.85321e-09 2.18829e-29 1.5297e-07 1.86814e-29 1.52989e-07)
(1.46462e-07 4.66413e-09 -1.78528e-29 1.4642e-07 5.74356e-30 1.46441e-07)
(1.41937e-07 4.55667e-09 8.97089e-29 1.41892e-07 -8.81451e-29 1.41914e-07)
(1.39076e-07 4.51583e-09 5.46318e-30 1.39028e-07 3.38023e-28 1.39052e-07)
(1.37638e-07 4.53227e-09 -1.39198e-29 1.37586e-07 9.10334e-30 1.37612e-07)
(1.37437e-07 4.59944e-09 6.18266e-30 1.37383e-07 -4.1851e-31 1.3741e-07)
(1.38332e-07 4.7126e-09 1.38855e-29 1.38276e-07 -3.96547e-28 1.38304e-07)
(1.40238e-07 4.86952e-09 -3.02943e-28 1.40179e-07 -1.98761e-28 1.40209e-07)
(1.43048e-07 5.06694e-09 8.00143e-29 1.42988e-07 -1.2418e-28 1.43018e-07)
(1.46721e-07 5.30442e-09 3.41002e-28 1.46659e-07 2.13865e-28 1.4669e-07)
(1.5124e-07 5.58289e-09 -3.35138e-28 1.51177e-07 -2.18807e-28 1.51209e-07)
(1.56497e-07 5.89795e-09 -9.2777e-30 1.56434e-07 -4.77456e-28 1.56465e-07)
(1.62576e-07 6.2555e-09 6.29539e-29 1.62514e-07 1.78553e-28 1.62545e-07)
(1.693e-07 6.64738e-09 -2.05477e-28 1.6924e-07 -1.22494e-28 1.6927e-07)
(1.76708e-07 7.0806e-09 -5.91406e-30 1.76649e-07 1.23622e-28 1.76678e-07)
(1.8483e-07 7.5534e-09 -1.33545e-33 1.84773e-07 -4.80071e-31 1.84802e-07)
(5.13331e-07 3.36754e-08 6.16666e-32 5.13072e-07 -1.52567e-32 5.13199e-07)
(5.36886e-07 3.59464e-08 4.05829e-29 5.36654e-07 -1.39297e-28 5.36772e-07)
(5.63051e-07 3.85159e-08 -3.31164e-27 5.62863e-07 -8.16484e-28 5.62957e-07)
(5.91215e-07 4.13376e-08 -3.72173e-27 5.9108e-07 -7.66543e-28 5.91149e-07)
(6.21775e-07 4.44598e-08 -4.91587e-27 6.21697e-07 -7.70564e-28 6.21738e-07)
(6.54508e-07 4.78915e-08 -3.28767e-27 6.54499e-07 1.83366e-27 6.54505e-07)
(6.88624e-07 5.15547e-08 -9.18721e-27 6.88691e-07 -2.6692e-27 6.8866e-07)
(7.2451e-07 5.55172e-08 9.82091e-27 7.24659e-07 4.14219e-28 7.24587e-07)
(7.61804e-07 5.97535e-08 -1.0535e-26 7.62044e-07 9.26266e-30 7.61927e-07)
(8.00397e-07 6.42725e-08 7.2054e-27 8.0073e-07 -8.73192e-28 8.00567e-07)
(8.40262e-07 6.90917e-08 -7.78317e-27 8.40692e-07 1.52193e-27 8.4048e-07)
(8.81246e-07 7.42142e-08 3.7013e-29 8.81775e-07 -3.03498e-29 8.81513e-07)
(9.23342e-07 7.96554e-08 -6.98605e-30 9.23972e-07 7.25962e-28 9.2366e-07)
(9.66873e-07 8.54911e-08 -2.88659e-28 9.67601e-07 7.25964e-27 9.6724e-07)
(1.01136e-06 9.166e-08 6.48588e-27 1.01218e-06 2.81287e-27 1.01177e-06)
(1.05669e-06 9.81622e-08 -1.54805e-28 1.05761e-06 -1.65116e-28 1.05715e-06)
(1.10282e-06 1.05008e-07 4.58949e-28 1.10382e-06 8.33064e-28 1.10332e-06)
(1.14935e-06 1.12148e-07 1.88371e-26 1.15043e-06 -7.74595e-27 1.14989e-06)
(1.19641e-06 1.1962e-07 -2.06185e-26 1.19756e-06 7.41358e-27 1.19699e-06)
(1.24383e-06 1.27402e-07 -2.30795e-26 1.24504e-06 -1.4127e-27 1.24443e-06)
(1.29164e-06 1.35515e-07 -2.11402e-26 1.2929e-06 1.0949e-26 1.29227e-06)
(1.33973e-06 1.43943e-07 -9.82055e-28 1.34103e-06 1.46557e-27 1.34038e-06)
(1.38816e-06 1.52711e-07 2.54845e-26 1.38949e-06 -3.03246e-26 1.38882e-06)
(1.43662e-06 1.61751e-07 -9.94196e-27 1.43796e-06 -7.94876e-27 1.43729e-06)
(1.48533e-06 1.71118e-07 -3.98315e-27 1.48668e-06 -7.63117e-27 1.486e-06)
(1.53414e-06 1.80779e-07 -1.59774e-27 1.5355e-06 2.16011e-27 1.53481e-06)
(1.58306e-06 1.90737e-07 -2.18782e-26 1.5844e-06 7.46139e-28 1.58373e-06)
(1.63201e-06 2.00975e-07 3.1681e-28 1.63333e-06 -6.19069e-27 1.63267e-06)
(1.68099e-06 2.11474e-07 1.02234e-27 1.68228e-06 6.06324e-28 1.68163e-06)
(1.72996e-06 2.22233e-07 -1.4902e-27 1.7312e-06 2.60841e-26 1.73057e-06)
(1.77887e-06 2.33233e-07 -2.47897e-26 1.78007e-06 1.61545e-26 1.77946e-06)
(1.8277e-06 2.44454e-07 3.07194e-26 1.82884e-06 1.35724e-26 1.82826e-06)
(1.87641e-06 2.55883e-07 5.11111e-27 1.87749e-06 6.72295e-27 1.87694e-06)
(1.92498e-06 2.67501e-07 2.97089e-27 1.92599e-06 4.03738e-27 1.92547e-06)
(1.97338e-06 2.79289e-07 9.81929e-28 1.97431e-06 5.62892e-29 1.97383e-06)
(2.02158e-06 2.91238e-07 1.25377e-26 2.02243e-06 6.73667e-27 2.02199e-06)
(2.06967e-06 3.03349e-07 1.20383e-26 2.07043e-06 -4.51178e-27 2.07004e-06)
(2.11755e-06 3.15594e-07 6.77953e-27 2.11823e-06 -1.60785e-26 2.11788e-06)
(2.1652e-06 3.27955e-07 1.11784e-27 2.16579e-06 6.74001e-29 2.16548e-06)
(2.21258e-06 3.40415e-07 1.3545e-26 2.21307e-06 -1.76207e-26 2.21281e-06)
(2.25967e-06 3.52964e-07 1.97033e-29 2.26007e-06 -7.82738e-28 2.25986e-06)
(2.30638e-06 3.6555e-07 -7.34836e-29 2.30669e-06 -9.61369e-27 2.30652e-06)
(2.35246e-06 3.78101e-07 7.96082e-27 2.35267e-06 -4.76032e-27 2.35255e-06)
(2.39786e-06 3.9057e-07 2.53409e-27 2.39798e-06 4.39382e-27 2.39791e-06)
(2.44242e-06 4.02911e-07 -1.30449e-27 2.44244e-06 7.09041e-27 2.44242e-06)
(2.48615e-06 4.1511e-07 -2.16121e-28 2.48608e-06 3.87197e-27 2.4861e-06)
(2.52897e-06 4.27117e-07 3.69507e-28 2.5288e-06 2.31206e-27 2.52887e-06)
(2.57081e-06 4.38912e-07 -1.44559e-28 2.57055e-06 -2.36164e-27 2.57067e-06)
(2.61154e-06 4.50433e-07 5.25729e-30 2.6112e-06 8.39048e-29 2.61136e-06)
(2.65109e-06 4.6165e-07 -5.59941e-30 2.65065e-06 9.66435e-29 2.65086e-06)
(2.6893e-06 4.72505e-07 5.84205e-28 2.68878e-06 -5.19674e-28 2.68903e-06)
(2.72606e-06 4.82946e-07 2.45081e-27 2.72546e-06 -1.21506e-27 2.72575e-06)
(2.76117e-06 4.92893e-07 -2.03817e-28 2.76049e-06 -2.41219e-27 2.76082e-06)
(2.79447e-06 5.02302e-07 -1.8949e-27 2.79373e-06 -2.19778e-27 2.79409e-06)
(2.82579e-06 5.11117e-07 1.92877e-28 2.82499e-06 -1.09359e-28 2.82539e-06)
(2.8549e-06 5.19244e-07 -4.22833e-27 2.85405e-06 2.94763e-28 2.85447e-06)
(2.88148e-06 5.26611e-07 7.61565e-28 2.8806e-06 8.94912e-27 2.88104e-06)
(2.90526e-06 5.33112e-07 -8.74857e-28 2.90437e-06 9.30941e-27 2.90481e-06)
(2.92582e-06 5.38661e-07 1.10992e-26 2.92495e-06 -3.28063e-27 2.92539e-06)
(2.94269e-06 5.43152e-07 -2.20756e-26 2.94188e-06 6.24211e-27 2.94229e-06)
(2.95417e-06 5.46061e-07 -2.44312e-28 2.95348e-06 -7.21467e-27 2.95383e-06)
(2.95882e-06 5.46933e-07 -7.08583e-27 2.95831e-06 -6.69334e-27 2.95857e-06)
(2.95466e-06 5.45195e-07 -1.96657e-27 2.95442e-06 -2.50561e-27 2.95455e-06)
(2.93926e-06 5.40112e-07 8.67813e-27 2.93938e-06 1.59986e-26 2.93933e-06)
(2.90957e-06 5.30771e-07 2.27427e-26 2.91013e-06 -2.78351e-27 2.90986e-06)
(2.86184e-06 5.16079e-07 7.57713e-27 2.86294e-06 3.32884e-27 2.8624e-06)
(2.79183e-06 4.94822e-07 1.43773e-26 2.79352e-06 7.43159e-27 2.79269e-06)
(2.6954e-06 4.65935e-07 -2.80177e-27 2.69769e-06 8.02888e-27 2.69657e-06)
(2.56926e-06 4.28863e-07 -3.17808e-26 2.57206e-06 4.90423e-27 2.57069e-06)
(2.41164e-06 3.8384e-07 1.10891e-26 2.41477e-06 4.62785e-27 2.41324e-06)
(2.22405e-06 3.32498e-07 -9.45769e-27 2.22724e-06 3.77651e-27 2.22568e-06)
(2.01207e-06 2.77948e-07 -7.4528e-27 2.01504e-06 -1.44219e-27 2.01359e-06)
(1.78557e-06 2.24328e-07 6.07366e-29 1.78808e-06 -6.18496e-28 1.78686e-06)
(1.55725e-06 1.75674e-07 -1.81512e-32 1.55917e-06 -1.29363e-28 1.55823e-06)
(1.34e-06 1.34753e-07 7.30982e-33 1.34134e-06 1.95961e-29 1.34069e-06)
(1.14438e-06 1.02543e-07 -5.87787e-33 1.14523e-06 -1.5036e-29 1.14481e-06)
(9.76534e-07 7.84601e-08 5.5625e-29 9.77007e-07 -1.09403e-27 9.76773e-07)
(8.37698e-07 6.10359e-08 -3.53873e-27 8.37915e-07 6.43547e-28 8.37807e-07)
(7.26351e-07 4.87112e-08 3.38829e-28 7.26398e-07 1.17191e-27 7.26373e-07)
(6.38502e-07 4.00311e-08 -9.29469e-29 6.38438e-07 2.80809e-29 6.38469e-07)
(5.70445e-07 3.39558e-08 4.95988e-27 5.70309e-07 1.44224e-27 5.70376e-07)
(5.1826e-07 2.96984e-08 -1.3195e-27 5.18074e-07 2.28725e-27 5.18166e-07)
(4.79286e-07 2.67709e-08 -5.13462e-27 4.79065e-07 -4.78516e-28 4.79175e-07)
(4.50166e-07 2.47357e-08 -2.00806e-28 4.49917e-07 5.44023e-29 4.50041e-07)
(4.28451e-07 2.33209e-08 -9.15561e-29 4.2818e-07 -4.66598e-29 4.28315e-07)
(4.12626e-07 2.23732e-08 -1.02924e-29 4.12336e-07 4.57405e-28 4.12481e-07)
(4.01614e-07 2.17911e-08 -3.13301e-27 4.01309e-07 -1.42748e-27 4.01461e-07)
(3.94665e-07 2.15096e-08 -1.69174e-28 3.94346e-07 -3.20822e-27 3.94505e-07)
(3.91204e-07 2.14822e-08 -9.19061e-29 3.90872e-07 2.74643e-29 3.91038e-07)
(3.90774e-07 2.16741e-08 3.3329e-27 3.90432e-07 1.58449e-27 3.90603e-07)
(3.9309e-07 2.20665e-08 1.3902e-27 3.9274e-07 -1.05344e-27 3.92915e-07)
(3.97807e-07 2.26368e-08 9.07308e-29 3.97451e-07 -3.05934e-27 3.97629e-07)
(4.04792e-07 2.33772e-08 -1.47191e-27 4.04432e-07 1.08591e-27 4.04612e-07)
(4.14006e-07 2.42936e-08 1.3597e-27 4.13646e-07 -1.11526e-27 4.13825e-07)
(4.25157e-07 2.53639e-08 4.325e-27 4.24801e-07 3.77308e-27 4.24979e-07)