/*--------------------------------*- C++ -*----------------------------------*\
| =========                 |                                                 |
| \\      /  F ield         | OpenFOAM: The Open Source CFD Toolbox           |
|  \\    /   O peration     | Version:  2.3.x                                 |
|   \\  /    A nd           | Web:      www.OpenFOAM.org                      |
|    \\/     M anipulation  |                                                 |
\*---------------------------------------------------------------------------*/
FoamFile
{
    version     2.0;
    format      ascii;
    class       volScalarField;
    location    "0";
    object      V;
}
// * * * * * * * * * * * * * * * * * * * * * * * * * * * * * * * * * * * * * //

dimensions      [0 3 0 0 0 0 0];

internalField   nonuniform List<scalar> 
14751
(
2.85709e-05
2.85695e-05
2.85648e-05
2.85628e-05
2.85637e-05
2.85638e-05
2.85634e-05
2.85636e-05
2.85641e-05
2.85645e-05
2.85643e-05
2.85645e-05
2.85647e-05
2.8565e-05
2.85653e-05
2.8566e-05
2.85668e-05
2.85675e-05
2.85682e-05
2.85685e-05
2.85685e-05
2.85685e-05
2.85685e-05
2.85685e-05
2.85686e-05
2.85686e-05
2.85686e-05
2.85686e-05
2.85686e-05
2.85686e-05
2.85686e-05
2.85686e-05
2.85686e-05
2.85686e-05
2.85687e-05
2.85687e-05
2.85687e-05
2.85687e-05
2.85687e-05
2.85687e-05
2.85688e-05
2.85688e-05
2.85688e-05
2.85688e-05
2.85688e-05
2.85688e-05
2.85688e-05
2.85688e-05
2.85688e-05
2.85688e-05
2.85688e-05
2.85688e-05
2.85688e-05
2.85688e-05
2.85688e-05
2.85688e-05
2.85688e-05
2.85688e-05
2.85688e-05
2.85688e-05
2.85688e-05
2.85688e-05
2.85688e-05
2.85687e-05
2.85687e-05
2.85687e-05
2.85687e-05
2.85687e-05
2.85687e-05
2.85686e-05
2.85686e-05
2.85686e-05
2.85686e-05
2.85685e-05
2.85685e-05
2.85685e-05
2.85685e-05
2.85684e-05
2.85684e-05
2.85684e-05
2.85684e-05
2.85683e-05
2.85682e-05
2.85676e-05
2.85667e-05
2.8566e-05
2.85656e-05
2.85651e-05
2.85653e-05
2.85652e-05
2.85653e-05
2.85655e-05
2.85659e-05
2.85662e-05
2.85666e-05
2.85673e-05
2.85677e-05
2.85682e-05
2.85691e-05
2.98843e-05
2.99406e-05
3.0017e-05
3.01063e-05
3.01867e-05
3.0278e-05
3.03796e-05
3.04913e-05
3.06113e-05
3.07349e-05
3.08594e-05
3.0986e-05
3.11121e-05
3.12381e-05
3.13622e-05
3.14839e-05
3.16033e-05
3.17195e-05
3.18325e-05
3.19419e-05
3.20476e-05
3.21497e-05
3.22478e-05
3.23417e-05
3.24313e-05
3.25165e-05
3.25974e-05
3.26741e-05
3.27465e-05
3.28148e-05
3.28789e-05
3.29389e-05
3.2995e-05
3.30472e-05
3.30956e-05
3.31403e-05
3.31814e-05
3.3219e-05
3.32533e-05
3.32843e-05
3.3312e-05
3.33367e-05
3.33582e-05
3.33767e-05
3.33922e-05
3.34049e-05
3.34146e-05
3.34216e-05
3.34258e-05
3.34272e-05
3.34257e-05
3.34213e-05
3.34141e-05
3.3404e-05
3.33911e-05
3.33752e-05
3.33564e-05
3.33346e-05
3.33097e-05
3.32817e-05
3.32503e-05
3.32157e-05
3.31776e-05
3.31361e-05
3.3091e-05
3.30423e-05
3.29897e-05
3.29334e-05
3.28731e-05
3.28088e-05
3.27403e-05
3.26675e-05
3.25905e-05
3.25091e-05
3.24234e-05
3.23334e-05
3.22393e-05
3.21408e-05
3.20381e-05
3.19314e-05
3.18209e-05
3.17068e-05
3.15901e-05
3.14711e-05
3.13494e-05
3.12257e-05
3.10999e-05
3.09729e-05
3.08453e-05
3.07144e-05
3.05833e-05
3.04521e-05
3.03266e-05
3.02086e-05
3.00987e-05
2.99964e-05
2.99155e-05
2.98672e-05
2.9851e-05
3.12368e-05
3.13317e-05
3.14756e-05
3.16424e-05
3.17886e-05
3.19521e-05
3.2134e-05
3.23336e-05
3.25474e-05
3.27672e-05
3.29881e-05
3.32125e-05
3.34371e-05
3.36633e-05
3.38883e-05
3.41093e-05
3.43266e-05
3.45388e-05
3.47456e-05
3.49465e-05
3.51414e-05
3.533e-05
3.55116e-05
3.56858e-05
3.58525e-05
3.60113e-05
3.61622e-05
3.63055e-05
3.64412e-05
3.65692e-05
3.66896e-05
3.68025e-05
3.69081e-05
3.70065e-05
3.70977e-05
3.71821e-05
3.72598e-05
3.7331e-05
3.73959e-05
3.74545e-05
3.75071e-05
3.75539e-05
3.75948e-05
3.76299e-05
3.76594e-05
3.76833e-05
3.77019e-05
3.77152e-05
3.7723e-05
3.77257e-05
3.77229e-05
3.77146e-05
3.77009e-05
3.76817e-05
3.76571e-05
3.76269e-05
3.75912e-05
3.75498e-05
3.75026e-05
3.74494e-05
3.73901e-05
3.73245e-05
3.72525e-05
3.71741e-05
3.70889e-05
3.69969e-05
3.68978e-05
3.67918e-05
3.66785e-05
3.65577e-05
3.64292e-05
3.6293e-05
3.6149e-05
3.59971e-05
3.58374e-05
3.56701e-05
3.54954e-05
3.53131e-05
3.51233e-05
3.49265e-05
3.47233e-05
3.45142e-05
3.43007e-05
3.40837e-05
3.38628e-05
3.36386e-05
3.34123e-05
3.3186e-05
3.2959e-05
3.27264e-05
3.24925e-05
3.22582e-05
3.20344e-05
3.18252e-05
3.16308e-05
3.14482e-05
3.13007e-05
3.12099e-05
3.11832e-05
3.26361e-05
3.27543e-05
3.29499e-05
3.31821e-05
3.3385e-05
3.36064e-05
3.38519e-05
3.41221e-05
3.44115e-05
3.47074e-05
3.50032e-05
3.53027e-05
3.5603e-05
3.59081e-05
3.62147e-05
3.65162e-05
3.68131e-05
3.71036e-05
3.73873e-05
3.76633e-05
3.79317e-05
3.81919e-05
3.84427e-05
3.86837e-05
3.89146e-05
3.9135e-05
3.93447e-05
3.95439e-05
3.97329e-05
3.99113e-05
4.00793e-05
4.0237e-05
4.03846e-05
4.05222e-05
4.065e-05
4.07682e-05
4.08772e-05
4.0977e-05
4.10681e-05
4.11504e-05
4.12244e-05
4.129e-05
4.13475e-05
4.13969e-05
4.14384e-05
4.14721e-05
4.14983e-05
4.15169e-05
4.1528e-05
4.15317e-05
4.15277e-05
4.15161e-05
4.14968e-05
4.14698e-05
4.14351e-05
4.13928e-05
4.13425e-05
4.12843e-05
4.1218e-05
4.11433e-05
4.106e-05
4.09679e-05
4.08669e-05
4.07569e-05
4.06376e-05
4.05088e-05
4.03702e-05
4.0222e-05
4.00638e-05
3.98953e-05
3.97161e-05
3.95266e-05
3.93263e-05
3.91154e-05
3.88937e-05
3.86621e-05
3.84205e-05
3.81687e-05
3.79069e-05
3.76359e-05
3.73566e-05
3.70697e-05
3.67774e-05
3.64809e-05
3.61797e-05
3.58746e-05
3.55689e-05
3.52666e-05
3.49638e-05
3.46536e-05
3.434e-05
3.40246e-05
3.37235e-05
3.34437e-05
3.3184e-05
3.29376e-05
3.27333e-05
3.26041e-05
3.25697e-05
3.40857e-05
3.42181e-05
3.44575e-05
3.47491e-05
3.5003e-05
3.52727e-05
3.55707e-05
3.58987e-05
3.62494e-05
3.66056e-05
3.69587e-05
3.7315e-05
3.76729e-05
3.80398e-05
3.84127e-05
3.87797e-05
3.91418e-05
3.94963e-05
3.9843e-05
4.01808e-05
4.05097e-05
4.08288e-05
4.11368e-05
4.1433e-05
4.17172e-05
4.19885e-05
4.2247e-05
4.24928e-05
4.27262e-05
4.29466e-05
4.31543e-05
4.33494e-05
4.35321e-05
4.37025e-05
4.38608e-05
4.40074e-05
4.41426e-05
4.42665e-05
4.43795e-05
4.44817e-05
4.45735e-05
4.46551e-05
4.47266e-05
4.4788e-05
4.48395e-05
4.48814e-05
4.4914e-05
4.49371e-05
4.49509e-05
4.49555e-05
4.49506e-05
4.49361e-05
4.49121e-05
4.48785e-05
4.48354e-05
4.47827e-05
4.47202e-05
4.46479e-05
4.45655e-05
4.44727e-05
4.43692e-05
4.42549e-05
4.41296e-05
4.39932e-05
4.38452e-05
4.36856e-05
4.3514e-05
4.33306e-05
4.31349e-05
4.29265e-05
4.27051e-05
4.2471e-05
4.2224e-05
4.19639e-05
4.1691e-05
4.1406e-05
4.11089e-05
4.07997e-05
4.04785e-05
4.01466e-05
3.98047e-05
3.9454e-05
3.90972e-05
3.87357e-05
3.83688e-05
3.79978e-05
3.76291e-05
3.72686e-05
3.69081e-05
3.65384e-05
3.61615e-05
3.57806e-05
3.54171e-05
3.50808e-05
3.47695e-05
3.44702e-05
3.42151e-05
3.4049e-05
3.40105e-05
3.55862e-05
3.57206e-05
3.59932e-05
3.63392e-05
3.66427e-05
3.69554e-05
3.72983e-05
3.7676e-05
3.80792e-05
3.8485e-05
3.8883e-05
3.92823e-05
3.96839e-05
4.00998e-05
4.05274e-05
4.09486e-05
4.13645e-05
4.17721e-05
4.21711e-05
4.256e-05
4.29391e-05
4.33071e-05
4.36627e-05
4.40048e-05
4.43334e-05
4.46472e-05
4.49466e-05
4.52312e-05
4.55017e-05
4.57573e-05
4.59983e-05
4.62247e-05
4.64369e-05
4.66349e-05
4.6819e-05
4.69893e-05
4.71466e-05
4.72907e-05
4.74223e-05
4.75413e-05
4.76482e-05
4.77432e-05
4.78265e-05
4.7898e-05
4.7958e-05
4.80068e-05
4.80448e-05
4.80717e-05
4.80878e-05
4.80932e-05
4.80874e-05
4.80706e-05
4.80426e-05
4.80034e-05
4.79532e-05
4.78918e-05
4.7819e-05
4.77348e-05
4.76388e-05
4.75308e-05
4.74103e-05
4.72773e-05
4.71315e-05
4.69729e-05
4.68008e-05
4.66153e-05
4.64159e-05
4.6203e-05
4.59757e-05
4.5734e-05
4.54772e-05
4.5206e-05
4.49198e-05
4.46188e-05
4.4303e-05
4.39737e-05
4.36304e-05
4.32735e-05
4.29031e-05
4.25206e-05
4.2127e-05
4.17236e-05
4.13135e-05
4.08983e-05
4.04772e-05
4.0052e-05
3.96331e-05
3.9229e-05
3.88252e-05
3.84104e-05
3.79833e-05
3.7549e-05
3.7134e-05
3.6752e-05
3.6399e-05
3.60545e-05
3.57516e-05
3.55483e-05
3.55076e-05
3.71395e-05
3.72691e-05
3.75734e-05
3.79735e-05
3.83253e-05
3.86767e-05
3.90591e-05
3.94805e-05
3.99296e-05
4.03769e-05
4.08104e-05
4.12422e-05
4.16767e-05
4.21318e-05
4.26059e-05
4.3073e-05
4.35347e-05
4.39873e-05
4.44306e-05
4.48629e-05
4.52846e-05
4.56942e-05
4.60902e-05
4.64714e-05
4.68376e-05
4.71877e-05
4.75218e-05
4.78394e-05
4.81415e-05
4.84271e-05
4.86965e-05
4.89496e-05
4.9187e-05
4.94084e-05
4.96144e-05
4.98051e-05
4.99811e-05
5.01425e-05
5.02899e-05
5.04232e-05
5.0543e-05
5.06494e-05
5.07427e-05
5.08229e-05
5.08902e-05
5.09449e-05
5.09874e-05
5.10177e-05
5.10357e-05
5.10417e-05
5.10352e-05
5.10163e-05
5.09849e-05
5.0941e-05
5.08848e-05
5.08159e-05
5.07344e-05
5.064e-05
5.05324e-05
5.04113e-05
5.02764e-05
5.01274e-05
4.99641e-05
4.97865e-05
4.95939e-05
4.93863e-05
4.91633e-05
4.89251e-05
4.8671e-05
4.84008e-05
4.81139e-05
4.7811e-05
4.74914e-05
4.71556e-05
4.68034e-05
4.64364e-05
4.60538e-05
4.56563e-05
4.5244e-05
4.48186e-05
4.4381e-05
4.3933e-05
4.34778e-05
4.3017e-05
4.255e-05
4.20787e-05
4.1619e-05
4.11818e-05
4.07454e-05
4.02959e-05
3.98276e-05
3.93476e-05
3.88886e-05
3.8468e-05
3.80799e-05
3.7695e-05
3.73454e-05
3.71036e-05
3.70624e-05
3.87468e-05
3.88614e-05
3.91915e-05
3.96451e-05
4.00481e-05
4.04378e-05
4.08574e-05
4.13198e-05
4.18108e-05
4.22942e-05
4.27559e-05
4.32119e-05
4.36712e-05
4.41581e-05
4.46727e-05
4.51799e-05
4.56814e-05
4.61732e-05
4.6655e-05
4.71251e-05
4.75838e-05
4.80296e-05
4.84607e-05
4.88759e-05
4.9275e-05
4.96566e-05
5.00209e-05
5.03674e-05
5.0697e-05
5.10087e-05
5.13029e-05
5.15793e-05
5.18387e-05
5.20807e-05
5.23058e-05
5.25143e-05
5.27068e-05
5.28833e-05
5.30445e-05
5.31904e-05
5.33214e-05
5.34379e-05
5.354e-05
5.36277e-05
5.37014e-05
5.37613e-05
5.38078e-05
5.38409e-05
5.38607e-05
5.38672e-05
5.38601e-05
5.38394e-05
5.3805e-05
5.3757e-05
5.36954e-05
5.36201e-05
5.35308e-05
5.34275e-05
5.33098e-05
5.31773e-05
5.30297e-05
5.28668e-05
5.26882e-05
5.2494e-05
5.22834e-05
5.20565e-05
5.18128e-05
5.15526e-05
5.12751e-05
5.098e-05
5.06669e-05
5.03364e-05
4.99877e-05
4.96215e-05
4.92376e-05
4.88378e-05
4.8421e-05
4.79883e-05
4.75395e-05
4.7077e-05
4.66013e-05
4.61145e-05
4.56201e-05
4.51197e-05
4.46126e-05
4.41013e-05
4.3608e-05
4.31463e-05
4.2686e-05
4.22103e-05
4.17078e-05
4.11883e-05
4.06905e-05
4.02366e-05
3.98185e-05
3.93964e-05
3.89995e-05
3.87169e-05
3.86764e-05
4.04101e-05
4.05049e-05
4.0864e-05
4.13743e-05
4.18286e-05
4.22543e-05
4.27083e-05
4.32091e-05
4.37396e-05
4.42551e-05
4.47399e-05
4.52138e-05
4.56915e-05
4.62051e-05
4.67562e-05
4.72995e-05
4.78369e-05
4.8364e-05
4.88806e-05
4.93846e-05
4.98766e-05
5.03547e-05
5.08175e-05
5.12631e-05
5.16917e-05
5.21016e-05
5.24931e-05
5.28655e-05
5.32198e-05
5.3555e-05
5.38715e-05
5.41688e-05
5.44479e-05
5.47083e-05
5.49507e-05
5.5175e-05
5.53823e-05
5.55725e-05
5.57461e-05
5.59031e-05
5.60443e-05
5.61698e-05
5.62798e-05
5.63742e-05
5.64537e-05
5.65183e-05
5.65684e-05
5.66041e-05
5.66253e-05
5.66323e-05
5.66246e-05
5.66023e-05
5.65653e-05
5.65136e-05
5.64472e-05
5.63661e-05
5.62699e-05
5.61585e-05
5.60317e-05
5.5889e-05
5.573e-05
5.55545e-05
5.53622e-05
5.51531e-05
5.49264e-05
5.46821e-05
5.44199e-05
5.414e-05
5.38413e-05
5.3524e-05
5.31872e-05
5.28319e-05
5.24571e-05
5.20637e-05
5.16512e-05
5.12219e-05
5.07744e-05
5.03101e-05
4.98286e-05
4.93326e-05
4.88227e-05
4.83011e-05
4.77715e-05
4.72354e-05
4.66923e-05
4.6145e-05
4.56229e-05
4.5143e-05
4.46653e-05
4.41694e-05
4.36375e-05
4.30821e-05
4.25488e-05
4.2065e-05
4.16201e-05
4.11622e-05
4.07162e-05
4.03898e-05
4.03511e-05
4.21298e-05
4.21969e-05
4.25846e-05
4.31551e-05
4.36652e-05
4.41286e-05
4.46177e-05
4.51564e-05
4.57244e-05
4.62686e-05
4.67716e-05
4.72577e-05
4.77484e-05
4.82843e-05
4.88687e-05
4.94453e-05
5.00159e-05
5.05754e-05
5.1124e-05
5.16593e-05
5.21819e-05
5.26899e-05
5.31818e-05
5.36554e-05
5.41113e-05
5.45473e-05
5.49639e-05
5.53601e-05
5.57373e-05
5.60941e-05
5.64311e-05
5.67478e-05
5.70451e-05
5.73226e-05
5.75809e-05
5.782e-05
5.80409e-05
5.82437e-05
5.84288e-05
5.85963e-05
5.87468e-05
5.88806e-05
5.89979e-05
5.90987e-05
5.91834e-05
5.92523e-05
5.93058e-05
5.93438e-05
5.93665e-05
5.93739e-05
5.93657e-05
5.93419e-05
5.93025e-05
5.92473e-05
5.91765e-05
5.909e-05
5.89874e-05
5.88686e-05
5.87333e-05
5.85812e-05
5.84116e-05
5.82245e-05
5.80195e-05
5.77966e-05
5.7555e-05
5.72947e-05
5.70153e-05
5.67172e-05
5.63991e-05
5.60611e-05
5.57024e-05
5.53243e-05
5.49254e-05
5.45068e-05
5.40681e-05
5.36116e-05
5.31358e-05
5.26423e-05
5.21307e-05
5.16041e-05
5.10626e-05
5.05091e-05
4.99471e-05
4.93781e-05
4.88017e-05
4.82212e-05
4.76742e-05
4.71815e-05
4.66918e-05
4.6181e-05
4.56236e-05
4.50352e-05
4.44688e-05
4.39575e-05
4.34881e-05
4.29951e-05
4.24973e-05
4.21238e-05
4.20877e-05
4.39077e-05
4.3943e-05
4.43658e-05
4.50017e-05
4.55684e-05
4.60681e-05
4.65902e-05
4.7166e-05
4.77712e-05
4.83428e-05
4.88609e-05
4.93553e-05
4.98549e-05
5.04104e-05
5.10267e-05
5.16351e-05
5.22372e-05
5.28276e-05
5.34067e-05
5.39718e-05
5.45235e-05
5.50598e-05
5.55792e-05
5.60795e-05
5.65611e-05
5.70219e-05
5.74623e-05
5.78811e-05
5.82799e-05
5.86573e-05
5.90138e-05
5.93488e-05
5.96634e-05
5.99571e-05
6.02304e-05
6.04835e-05
6.07174e-05
6.09321e-05
6.11281e-05
6.13054e-05
6.14649e-05
6.16066e-05
6.17308e-05
6.18375e-05
6.19273e-05
6.20003e-05
6.2057e-05
6.20972e-05
6.21212e-05
6.2129e-05
6.21203e-05
6.20951e-05
6.20533e-05
6.19949e-05
6.192e-05
6.18283e-05
6.17196e-05
6.15938e-05
6.14505e-05
6.12894e-05
6.11098e-05
6.09117e-05
6.06947e-05
6.04587e-05
6.02029e-05
5.99275e-05
5.96318e-05
5.93163e-05
5.89797e-05
5.86222e-05
5.82429e-05
5.78431e-05
5.74212e-05
5.69788e-05
5.65152e-05
5.6033e-05
5.55303e-05
5.50092e-05
5.4469e-05
5.39133e-05
5.33419e-05
5.27581e-05
5.21653e-05
5.1565e-05
5.0957e-05
5.03449e-05
4.97758e-05
4.92744e-05
4.87772e-05
4.82556e-05
4.76753e-05
4.70554e-05
4.64569e-05
4.59195e-05
4.54271e-05
4.48984e-05
4.43452e-05
4.39203e-05
4.38876e-05
4.57459e-05
4.57456e-05
4.62101e-05
4.69182e-05
4.75438e-05
4.80804e-05
4.86362e-05
4.92489e-05
4.989e-05
5.04863e-05
5.10155e-05
5.15134e-05
5.20178e-05
5.25899e-05
5.32367e-05
5.38756e-05
5.45081e-05
5.51284e-05
5.57368e-05
5.63306e-05
5.69103e-05
5.7474e-05
5.80201e-05
5.85461e-05
5.90526e-05
5.95373e-05
6.00007e-05
6.04414e-05
6.08612e-05
6.12585e-05
6.1634e-05
6.19867e-05
6.23181e-05
6.26275e-05
6.29155e-05
6.31821e-05
6.34286e-05
6.36548e-05
6.38614e-05
6.40484e-05
6.42165e-05
6.43658e-05
6.44967e-05
6.46093e-05
6.47039e-05
6.4781e-05
6.48407e-05
6.48831e-05
6.49084e-05
6.49166e-05
6.49074e-05
6.48808e-05
6.48368e-05
6.47752e-05
6.46962e-05
6.45996e-05
6.4485e-05
6.43524e-05
6.42012e-05
6.40315e-05
6.38422e-05
6.36334e-05
6.34047e-05
6.3156e-05
6.28865e-05
6.25963e-05
6.22848e-05
6.19526e-05
6.15981e-05
6.12216e-05
6.08223e-05
6.04014e-05
5.99575e-05
5.94919e-05
5.90043e-05
5.84972e-05
5.79686e-05
5.74207e-05
5.6853e-05
5.62691e-05
5.56689e-05
5.50558e-05
5.44334e-05
5.38029e-05
5.31643e-05
5.25217e-05
5.19327e-05
5.14263e-05
5.09258e-05
5.03971e-05
4.97963e-05
4.9146e-05
4.85161e-05
4.79537e-05
4.74393e-05
4.68738e-05
4.62609e-05
4.57805e-05
4.5752e-05
4.7649e-05
4.76115e-05
4.81222e-05
4.89076e-05
4.95932e-05
5.01657e-05
5.07534e-05
5.14032e-05
5.2081e-05
5.27014e-05
5.32396e-05
5.3738e-05
5.42442e-05
5.48313e-05
5.55083e-05
5.61777e-05
5.68403e-05
5.74902e-05
5.81277e-05
5.87499e-05
5.93573e-05
5.9948e-05
6.05204e-05
6.10718e-05
6.16029e-05
6.21112e-05
6.25974e-05
6.30597e-05
6.35001e-05
6.39171e-05
6.43112e-05
6.46815e-05
6.50294e-05
6.53542e-05
6.56567e-05
6.59367e-05
6.61955e-05
6.64332e-05
6.66502e-05
6.68467e-05
6.70233e-05
6.71802e-05
6.73178e-05
6.7436e-05
6.75355e-05
6.76165e-05
6.76792e-05
6.77238e-05
6.77504e-05
6.77589e-05
6.77492e-05
6.77213e-05
6.7675e-05
6.76104e-05
6.75273e-05
6.74258e-05
6.73054e-05
6.7166e-05
6.70072e-05
6.68288e-05
6.663e-05
6.64107e-05
6.61704e-05
6.59093e-05
6.56262e-05
6.53214e-05
6.49944e-05
6.46456e-05
6.42734e-05
6.38782e-05
6.34591e-05
6.30175e-05
6.25517e-05
6.20634e-05
6.15519e-05
6.10203e-05
6.0466e-05
5.98918e-05
5.92969e-05
5.86853e-05
5.80567e-05
5.74148e-05
5.6763e-05
5.61026e-05
5.54337e-05
5.4761e-05
5.41537e-05
5.36454e-05
5.31452e-05
5.26124e-05
5.19929e-05
5.13126e-05
5.06512e-05
5.00642e-05
4.95283e-05
4.89246e-05
4.82469e-05
4.77061e-05
4.76822e-05
4.96149e-05
4.95408e-05
5.01125e-05
5.09853e-05
5.17311e-05
5.2338e-05
5.29573e-05
5.36432e-05
5.4356e-05
5.49977e-05
5.55406e-05
5.60348e-05
5.65388e-05
5.71386e-05
5.78451e-05
5.85443e-05
5.92367e-05
5.9916e-05
6.05824e-05
6.12327e-05
6.18678e-05
6.24853e-05
6.30839e-05
6.36605e-05
6.42162e-05
6.47481e-05
6.52569e-05
6.57408e-05
6.62019e-05
6.66385e-05
6.70512e-05
6.7439e-05
6.78035e-05
6.81438e-05
6.84607e-05
6.87541e-05
6.90254e-05
6.92745e-05
6.95021e-05
6.9708e-05
6.98931e-05
7.00576e-05
7.02018e-05
7.03258e-05
7.04301e-05
7.0515e-05
7.05809e-05
7.06276e-05
7.06554e-05
7.06643e-05
7.06541e-05
7.06249e-05
7.05763e-05
7.05086e-05
7.04216e-05
7.03151e-05
7.01889e-05
7.00427e-05
6.98762e-05
6.96892e-05
6.94808e-05
6.9251e-05
6.89992e-05
6.87255e-05
6.84288e-05
6.81095e-05
6.77669e-05
6.74016e-05
6.70117e-05
6.65978e-05
6.61589e-05
6.56966e-05
6.52089e-05
6.46979e-05
6.41628e-05
6.36067e-05
6.30269e-05
6.24264e-05
6.18043e-05
6.11652e-05
6.05083e-05
5.98377e-05
5.91567e-05
5.84665e-05
5.77675e-05
5.7065e-05
5.64407e-05
5.59338e-05
5.54375e-05
5.49038e-05
5.42672e-05
5.35571e-05
5.2864e-05
5.22527e-05
5.16955e-05
5.10514e-05
5.03035e-05
4.96972e-05
4.9679e-05
5.16545e-05
5.15455e-05
5.21773e-05
5.31408e-05
5.39484e-05
5.45891e-05
5.52387e-05
5.59613e-05
5.67103e-05
5.73731e-05
5.79187e-05
5.84057e-05
5.89046e-05
5.95159e-05
6.02523e-05
6.09819e-05
6.17046e-05
6.24135e-05
6.31092e-05
6.37881e-05
6.4451e-05
6.50957e-05
6.57207e-05
6.63229e-05
6.69033e-05
6.7459e-05
6.79907e-05
6.84963e-05
6.89783e-05
6.94347e-05
6.98662e-05
7.02718e-05
7.0653e-05
7.10089e-05
7.13404e-05
7.16474e-05
7.19312e-05
7.21919e-05
7.243e-05
7.26455e-05
7.28393e-05
7.30114e-05
7.31623e-05
7.32921e-05
7.34013e-05
7.34902e-05
7.35591e-05
7.3608e-05
7.36371e-05
7.36463e-05
7.36356e-05
7.3605e-05
7.35543e-05
7.34834e-05
7.33923e-05
7.32809e-05
7.31488e-05
7.29958e-05
7.28215e-05
7.26258e-05
7.24077e-05
7.21673e-05
7.19038e-05
7.16174e-05
7.13071e-05
7.0973e-05
7.06147e-05
7.02327e-05
6.98249e-05
6.93921e-05
6.89332e-05
6.845e-05
6.79403e-05
6.74063e-05
6.68473e-05
6.62665e-05
6.56609e-05
6.50338e-05
6.43845e-05
6.37175e-05
6.30321e-05
6.23325e-05
6.1622e-05
6.09018e-05
6.01723e-05
5.94396e-05
5.87995e-05
5.82968e-05
5.78079e-05
5.72763e-05
5.6624e-05
5.58838e-05
5.51583e-05
5.45227e-05
5.39442e-05
5.32573e-05
5.24328e-05
5.17554e-05
5.17436e-05
5.37675e-05
5.36327e-05
5.43413e-05
5.54053e-05
5.62704e-05
5.694e-05
5.76169e-05
5.83741e-05
5.91569e-05
5.98375e-05
6.03811e-05
6.08558e-05
6.13455e-05
6.19662e-05
6.27321e-05
6.34921e-05
6.42451e-05
6.4984e-05
6.57091e-05
6.64168e-05
6.71079e-05
6.77801e-05
6.84318e-05
6.90598e-05
6.96654e-05
7.02452e-05
7.08001e-05
7.13279e-05
7.1831e-05
7.23076e-05
7.27582e-05
7.31818e-05
7.35799e-05
7.39518e-05
7.42982e-05
7.46189e-05
7.49156e-05
7.5188e-05
7.54369e-05
7.56621e-05
7.58647e-05
7.60446e-05
7.62024e-05
7.6338e-05
7.64523e-05
7.65452e-05
7.66172e-05
7.66683e-05
7.66987e-05
7.67084e-05
7.66972e-05
7.66652e-05
7.66121e-05
7.65381e-05
7.64428e-05
7.63264e-05
7.61883e-05
7.60283e-05
7.58461e-05
7.56416e-05
7.54136e-05
7.51623e-05
7.48869e-05
7.45877e-05
7.42634e-05
7.39145e-05
7.35401e-05
7.31411e-05
7.27152e-05
7.22632e-05
7.1784e-05
7.12795e-05
7.07475e-05
7.01902e-05
6.96069e-05
6.9001e-05
6.83692e-05
6.77153e-05
6.70383e-05
6.63431e-05
6.56289e-05
6.49e-05
6.41596e-05
6.34089e-05
6.26487e-05
6.18855e-05
6.12308e-05
6.07354e-05
6.02577e-05
5.97313e-05
5.90646e-05
5.82941e-05
5.75356e-05
5.68756e-05
5.62758e-05
5.55432e-05
5.46355e-05
5.38814e-05
5.38768e-05
5.59619e-05
5.58054e-05
5.65841e-05
5.77501e-05
5.86755e-05
5.93735e-05
6.00769e-05
6.08695e-05
6.16879e-05
6.23862e-05
6.29255e-05
6.33849e-05
6.38623e-05
6.44912e-05
6.52874e-05
6.60787e-05
6.68628e-05
6.76324e-05
6.83877e-05
6.91249e-05
6.98449e-05
7.05451e-05
7.12242e-05
7.18786e-05
7.25098e-05
7.31143e-05
7.3693e-05
7.42433e-05
7.47681e-05
7.52652e-05
7.57354e-05
7.61773e-05
7.65928e-05
7.69809e-05
7.73425e-05
7.76773e-05
7.7987e-05
7.82715e-05
7.85314e-05
7.87666e-05
7.89781e-05
7.9166e-05
7.93308e-05
7.94725e-05
7.95918e-05
7.96889e-05
7.97641e-05
7.98174e-05
7.98491e-05
7.98592e-05
7.98474e-05
7.9814e-05
7.97586e-05
7.96813e-05
7.95819e-05
7.94603e-05
7.9316e-05
7.9149e-05
7.89587e-05
7.87451e-05
7.85071e-05
7.82447e-05
7.79572e-05
7.76448e-05
7.73063e-05
7.6942e-05
7.65513e-05
7.61349e-05
7.56904e-05
7.52188e-05
7.47189e-05
7.41927e-05
7.36378e-05
7.30567e-05
7.24486e-05
7.18171e-05
7.11587e-05
7.04773e-05
6.9772e-05
6.90481e-05
6.83044e-05
6.75455e-05
6.67746e-05
6.59929e-05
6.52013e-05
6.4407e-05
6.37384e-05
6.32533e-05
6.27907e-05
6.22724e-05
6.15928e-05
6.07915e-05
5.9999e-05
5.93143e-05
5.86929e-05
5.79113e-05
5.6913e-05
5.60757e-05
5.60791e-05
5.82366e-05
5.80713e-05
5.89339e-05
6.02102e-05
6.11909e-05
6.19116e-05
6.26374e-05
6.3463e-05
6.43149e-05
6.50278e-05
6.55582e-05
6.59969e-05
6.64577e-05
6.70928e-05
6.79193e-05
6.8742e-05
6.95575e-05
7.03582e-05
7.11442e-05
7.19114e-05
7.26608e-05
7.33897e-05
7.40967e-05
7.47781e-05
7.54355e-05
7.60652e-05
7.66681e-05
7.72416e-05
7.77885e-05
7.83066e-05
7.87968e-05
7.92576e-05
7.96909e-05
8.00957e-05
8.04729e-05
8.08221e-05
8.11452e-05
8.1442e-05
8.17132e-05
8.19587e-05
8.21794e-05
8.23754e-05
8.25474e-05
8.26953e-05
8.28198e-05
8.29212e-05
8.29997e-05
8.30553e-05
8.30884e-05
8.30988e-05
8.30865e-05
8.30517e-05
8.29939e-05
8.29132e-05
8.28095e-05
8.26826e-05
8.2532e-05
8.23577e-05
8.21591e-05
8.19362e-05
8.16879e-05
8.14141e-05
8.11142e-05
8.07883e-05
8.04352e-05
8.00553e-05
7.96479e-05
7.92136e-05
7.87501e-05
7.82584e-05
7.77372e-05
7.71888e-05
7.66105e-05
7.60051e-05
7.53717e-05
7.4714e-05
7.40283e-05
7.33188e-05
7.25848e-05
7.18314e-05
7.10577e-05
7.02683e-05
6.94662e-05
6.86529e-05
6.78293e-05
6.70035e-05
6.63223e-05
6.58508e-05
6.54074e-05
6.49007e-05
6.42096e-05
6.33768e-05
6.25493e-05
6.18396e-05
6.11964e-05
6.03624e-05
5.92655e-05
5.83385e-05
5.83512e-05
6.05972e-05
6.04287e-05
6.13663e-05
6.27541e-05
6.3794e-05
6.45376e-05
6.52856e-05
6.61453e-05
6.70321e-05
6.77589e-05
6.82772e-05
6.86913e-05
6.91318e-05
6.97719e-05
7.06293e-05
7.14844e-05
7.23323e-05
7.31651e-05
7.39826e-05
7.47807e-05
7.55603e-05
7.63185e-05
7.70541e-05
7.77633e-05
7.84475e-05
7.91032e-05
7.97309e-05
8.03282e-05
8.08978e-05
8.14375e-05
8.19483e-05
8.24285e-05
8.288e-05
8.33019e-05
8.36951e-05
8.40591e-05
8.4396e-05
8.47055e-05
8.49882e-05
8.52442e-05
8.54744e-05
8.56788e-05
8.58581e-05
8.60123e-05
8.61423e-05
8.6248e-05
8.63298e-05
8.63879e-05
8.64223e-05
8.64331e-05
8.64203e-05
8.6384e-05
8.63237e-05
8.62396e-05
8.61314e-05
8.59991e-05
8.58421e-05
8.56603e-05
8.54532e-05
8.52208e-05
8.49618e-05
8.46763e-05
8.43637e-05
8.40239e-05
8.36558e-05
8.32598e-05
8.28352e-05
8.23826e-05
8.18996e-05
8.13872e-05
8.08443e-05
8.02731e-05
7.96708e-05
7.90404e-05
7.8381e-05
7.76964e-05
7.69828e-05
7.62445e-05
7.54809e-05
7.46974e-05
7.38928e-05
7.3072e-05
7.2238e-05
7.13923e-05
7.05359e-05
6.96777e-05
6.89847e-05
6.85303e-05
6.81104e-05
6.76189e-05
6.69179e-05
6.60531e-05
6.51893e-05
6.44543e-05
6.3789e-05
6.28986e-05
6.16946e-05
6.06706e-05
6.06936e-05
6.30378e-05
6.28737e-05
6.38934e-05
6.54002e-05
6.64991e-05
6.72629e-05
6.8031e-05
6.89244e-05
6.98455e-05
7.05839e-05
7.10857e-05
7.14699e-05
7.18857e-05
7.25286e-05
7.34173e-05
7.43053e-05
7.51861e-05
7.60515e-05
7.69013e-05
7.77308e-05
7.85413e-05
7.93297e-05
8.00946e-05
8.08322e-05
8.1544e-05
8.22262e-05
8.28795e-05
8.35011e-05
8.4094e-05
8.4656e-05
8.51878e-05
8.56879e-05
8.61582e-05
8.65977e-05
8.70073e-05
8.73866e-05
8.77376e-05
8.80601e-05
8.83548e-05
8.86216e-05
8.88615e-05
8.90746e-05
8.92615e-05
8.94222e-05
8.95577e-05
8.96679e-05
8.97532e-05
8.98137e-05
8.98496e-05
8.98608e-05
8.98474e-05
8.98095e-05
8.97467e-05
8.96591e-05
8.95463e-05
8.94084e-05
8.92448e-05
8.90553e-05
8.88394e-05
8.85972e-05
8.83273e-05
8.80299e-05
8.77041e-05
8.73501e-05
8.69666e-05
8.65541e-05
8.61118e-05
8.56404e-05
8.51373e-05
8.46037e-05
8.40385e-05
8.34438e-05
8.28169e-05
8.21608e-05
8.14748e-05
8.07626e-05
8.00203e-05
7.92526e-05
7.84586e-05
7.76443e-05
7.68081e-05
7.59553e-05
7.50885e-05
7.42097e-05
7.33199e-05
7.24287e-05
7.17253e-05
7.12918e-05
7.09001e-05
7.04277e-05
6.97183e-05
6.88208e-05
6.79195e-05
6.71589e-05
6.6471e-05
6.55202e-05
6.42e-05
6.30717e-05
6.31062e-05
6.55565e-05
6.53979e-05
6.64988e-05
6.81305e-05
6.92937e-05
7.00785e-05
7.08668e-05
7.17952e-05
7.27521e-05
7.35013e-05
7.39829e-05
7.43326e-05
7.47195e-05
7.53637e-05
7.62846e-05
7.72064e-05
7.81212e-05
7.90202e-05
7.99032e-05
8.07653e-05
8.16075e-05
8.24268e-05
8.3222e-05
8.39888e-05
8.47289e-05
8.54384e-05
8.61179e-05
8.67646e-05
8.73815e-05
8.79663e-05
8.85198e-05
8.90403e-05
8.95299e-05
8.99875e-05
9.0414e-05
9.0809e-05
9.11746e-05
9.15104e-05
9.18174e-05
9.20953e-05
9.23452e-05
9.25672e-05
9.27618e-05
9.29293e-05
9.30704e-05
9.31853e-05
9.32741e-05
9.33371e-05
9.33745e-05
9.33862e-05
9.33722e-05
9.33327e-05
9.32673e-05
9.3176e-05
9.30586e-05
9.29149e-05
9.27445e-05
9.25471e-05
9.23222e-05
9.20699e-05
9.17888e-05
9.1479e-05
9.11397e-05
9.0771e-05
9.03717e-05
8.99422e-05
8.94817e-05
8.8991e-05
8.84673e-05
8.79119e-05
8.73237e-05
8.67048e-05
8.60526e-05
8.53702e-05
8.46568e-05
8.39162e-05
8.31445e-05
8.23464e-05
8.15214e-05
8.06752e-05
7.98066e-05
7.89208e-05
7.80204e-05
7.71075e-05
7.61833e-05
7.52584e-05
7.45455e-05
7.41368e-05
7.37784e-05
7.33293e-05
7.26133e-05
7.16824e-05
7.07423e-05
6.99558e-05
6.92449e-05
6.82291e-05
6.67827e-05
6.55416e-05
6.55891e-05
6.81415e-05
6.79809e-05
6.91672e-05
7.0934e-05
7.21703e-05
7.29795e-05
7.379e-05
7.47561e-05
7.57509e-05
7.65104e-05
7.69682e-05
7.72783e-05
7.76318e-05
7.82756e-05
7.92293e-05
8.01858e-05
8.11352e-05
8.20687e-05
8.29856e-05
8.3881e-05
8.47558e-05
8.56069e-05
8.6433e-05
8.72298e-05
8.79989e-05
8.87365e-05
8.9443e-05
9.01154e-05
9.07569e-05
9.13652e-05
9.1941e-05
9.24825e-05
9.29919e-05
9.34681e-05
9.3912e-05
9.43232e-05
9.47037e-05
9.50533e-05
9.53728e-05
9.56621e-05
9.59223e-05
9.61535e-05
9.63562e-05
9.65306e-05
9.66775e-05
9.67971e-05
9.68897e-05
9.69552e-05
9.69941e-05
9.70062e-05
9.69917e-05
9.69505e-05
9.68825e-05
9.67875e-05
9.66652e-05
9.65156e-05
9.63381e-05
9.61326e-05
9.58985e-05
9.56358e-05
9.53432e-05
9.50207e-05
9.46675e-05
9.42838e-05
9.38682e-05
9.34212e-05
9.29421e-05
9.24314e-05
9.18866e-05
9.13088e-05
9.06969e-05
9.00533e-05
8.93752e-05
8.86657e-05
8.79242e-05
8.71544e-05
8.63525e-05
8.55234e-05
8.46664e-05
8.37877e-05
8.28858e-05
8.19662e-05
8.10314e-05
8.00837e-05
7.91244e-05
7.81651e-05
7.74443e-05
7.70648e-05
7.67451e-05
7.63238e-05
7.56033e-05
7.46382e-05
7.36579e-05
7.28451e-05
7.21107e-05
7.10252e-05
6.94425e-05
6.80802e-05
6.81421e-05
7.07926e-05
7.06255e-05
7.19087e-05
7.38237e-05
7.51393e-05
7.59741e-05
7.68073e-05
7.78127e-05
7.88466e-05
7.96146e-05
8.0044e-05
8.03089e-05
8.06241e-05
8.12654e-05
8.22529e-05
8.3245e-05
8.42301e-05
8.51991e-05
8.6151e-05
8.70805e-05
8.79889e-05
8.88727e-05
8.97306e-05
9.05582e-05
9.13572e-05
9.21235e-05
9.28578e-05
9.35567e-05
9.42235e-05
9.48558e-05
9.54545e-05
9.60176e-05
9.65474e-05
9.70427e-05
9.75045e-05
9.79322e-05
9.83281e-05
9.86919e-05
9.90243e-05
9.93254e-05
9.95962e-05
9.98367e-05
0.000100048
0.000100229
0.000100382
0.000100507
0.000100603
0.000100671
0.000100711
0.000100724
0.000100709
0.000100666
0.000100595
0.000100496
0.000100369
0.000100214
0.000100029
9.9815e-05
9.95714e-05
9.9298e-05
9.89935e-05
9.8658e-05
9.82905e-05
9.78914e-05
9.74591e-05
9.69941e-05
9.64958e-05
9.59647e-05
9.53981e-05
9.47973e-05
9.41611e-05
9.3492e-05
9.27872e-05
9.20499e-05
9.12795e-05
9.04798e-05
8.96469e-05
8.87857e-05
8.7896e-05
8.69838e-05
8.60477e-05
8.50933e-05
8.41231e-05
8.31397e-05
8.21444e-05
8.11497e-05
8.04223e-05
8.00766e-05
7.98014e-05
7.94129e-05
7.869e-05
7.769e-05
7.66681e-05
7.58286e-05
7.50704e-05
7.391e-05
7.21798e-05
7.06868e-05
7.07646e-05
7.35018e-05
7.33119e-05
7.46946e-05
7.67707e-05
7.81802e-05
7.90478e-05
7.9908e-05
8.09574e-05
8.20336e-05
8.28103e-05
8.32073e-05
8.34216e-05
8.36936e-05
8.43306e-05
8.53525e-05
8.63813e-05
8.7403e-05
8.84083e-05
8.93959e-05
9.03606e-05
9.13033e-05
9.22206e-05
9.31111e-05
9.39704e-05
9.48001e-05
9.5596e-05
9.63586e-05
9.70847e-05
9.77775e-05
9.84346e-05
9.90567e-05
9.96421e-05
0.000100193
0.000100708
0.000101188
0.000101633
0.000102044
0.000102423
0.000102768
0.000103081
0.000103363
0.000103613
0.000103833
0.000104021
0.000104181
0.00010431
0.00010441
0.000104481
0.000104523
0.000104536
0.00010452
0.000104476
0.000104402
0.000104299
0.000104167
0.000104005
0.000103813
0.000103591
0.000103337
0.000103053
0.000102736
0.000102387
0.000102005
0.00010159
0.000101141
0.000100657
0.000100139
9.95873e-05
9.89984e-05
9.83739e-05
9.77129e-05
9.70177e-05
9.62854e-05
9.55197e-05
9.47196e-05
9.38892e-05
9.30244e-05
9.21305e-05
9.12072e-05
9.02607e-05
8.92895e-05
8.82995e-05
8.7293e-05
8.62731e-05
8.52411e-05
8.42104e-05
8.34779e-05
8.31711e-05
8.29468e-05
8.25963e-05
8.18734e-05
8.08378e-05
7.97727e-05
7.89062e-05
7.81236e-05
7.68831e-05
7.49936e-05
7.33602e-05
7.34557e-05
7.6267e-05
7.60455e-05
7.75487e-05
7.9805e-05
8.1315e-05
8.22167e-05
8.31046e-05
8.41994e-05
8.53191e-05
8.61023e-05
8.64615e-05
8.66185e-05
8.68416e-05
8.74719e-05
8.85292e-05
8.95955e-05
9.06549e-05
9.16975e-05
9.2722e-05
9.37227e-05
9.47008e-05
9.56526e-05
9.65766e-05
9.74683e-05
9.83295e-05
9.91558e-05
9.99476e-05
0.000100702
0.000101421
0.000102103
0.00010275
0.000103358
0.00010393
0.000104465
0.000104964
0.000105426
0.000105854
0.000106247
0.000106607
0.000106932
0.000107225
0.000107485
0.000107713
0.000107909
0.000108075
0.000108209
0.000108314
0.000108387
0.000108431
0.000108444
0.000108428
0.000108382
0.000108305
0.000108198
0.000108061
0.000107893
0.000107693
0.000107462
0.000107198
0.000106903
0.000106574
0.000106211
0.000105814
0.000105382
0.000104915
0.000104413
0.000103875
0.000103301
0.000102689
0.000102041
0.000101354
0.000100632
9.98715e-05
9.90764e-05
9.82459e-05