/*--------------------------------*- C++ -*----------------------------------*\
| =========                 |                                                 |
| \\      /  F ield         | OpenFOAM: The Open Source CFD Toolbox           |
|  \\    /   O peration     | Version:  2.3.x                                 |
|   \\  /    A nd           | Web:      www.OpenFOAM.org                      |
|    \\/     M anipulation  |                                                 |
\*---------------------------------------------------------------------------*/
FoamFile
{
    version     2.0;
    format      ascii;
    class       volVectorField;
    location    "0";
    object      UDNS;
}
// * * * * * * * * * * * * * * * * * * * * * * * * * * * * * * * * * * * * * //

dimensions      [0 1 -1 0 0 0 0];

internalField   nonuniform List<vector> 
14751
(
(1.597599711345915659e-03 -1.096277154485121570e-07 3.626661525926550730e-06)
(1.601309124885186806e-03 -5.880052687207998880e-08 3.645598842016809490e-06)
(1.602325036278086801e-03 -9.929251115233551465e-09 3.651074255792304420e-06)
(1.600579650526554260e-03 3.327960235774228383e-08 3.645673762305471840e-06)
(1.596117532933238750e-03 9.525992722294041563e-08 3.651557832319974994e-06)
(1.588977634670945237e-03 1.984496144936817279e-07 3.689956884161708875e-06)
(1.579228496587262859e-03 3.042087364998284410e-07 3.756312479850326202e-06)
(1.567019766431358924e-03 4.076811833294852930e-07 3.832246807925870101e-06)
(1.552565733070433458e-03 4.897299424273454132e-07 3.905826106836671602e-06)
(1.536050035088583690e-03 5.039023838967317792e-07 3.972779551668145030e-06)
(1.517725570160339882e-03 5.089765313429016066e-07 4.038168636577278242e-06)
(1.497858985781024433e-03 5.031100794071022774e-07 4.107985778128925367e-06)
(1.476711056037933534e-03 5.012121731962290199e-07 4.186989646387956998e-06)
(1.454547187835279493e-03 5.690918096897800300e-07 4.276510834033460096e-06)
(1.431642598601789128e-03 6.323270130464228209e-07 4.353208902142202845e-06)
(1.408194022871822907e-03 6.891986716732188753e-07 4.382931283061999504e-06)
(1.384497751574974940e-03 7.385214442865538619e-07 4.406844894306907464e-06)
(1.360745154929463799e-03 6.921498806303231696e-07 4.393406059892843244e-06)
(1.337090839172495578e-03 6.432144569175203472e-07 4.317264464300727184e-06)
(1.313708933199709151e-03 5.892019460044660608e-07 4.219150020470289366e-06)
(1.290771500427666339e-03 5.357385720812418546e-07 4.149272797990369264e-06)
(1.268366230429136430e-03 5.529207156252755959e-07 4.093070016715935443e-06)
(1.246594003536367770e-03 5.767397374194988511e-07 4.033957521644296676e-06)
(1.225514008969529143e-03 5.952402363577247619e-07 3.983407028084800205e-06)
(1.205112093697775170e-03 6.134603120402885487e-07 3.940353616783979693e-06)
(1.185367088764530119e-03 5.745296533918843016e-07 3.918380146771992835e-06)
(1.166262401380668660e-03 5.221543869423378938e-07 3.914667979225709685e-06)
(1.147786892432782003e-03 4.733714121161923233e-07 3.963339379849992099e-06)
(1.129966734967482317e-03 4.299011258445050927e-07 4.039090945762258163e-06)
(1.112729003235379648e-03 4.216000274686025637e-07 4.039075011763125958e-06)
(1.096342975851040099e-03 4.241416151683189662e-07 3.949853580602195359e-06)
(1.080756949923187410e-03 4.293417511707835515e-07 3.843432414349982547e-06)
(1.065699919845725444e-03 4.328970107665999410e-07 3.759917707358093933e-06)
(1.051286515102357920e-03 4.113097404314240076e-07 3.643919411970646145e-06)
(1.037315284482732535e-03 3.834815144694667169e-07 3.537524151155756288e-06)
(1.023753497689534192e-03 3.592775224203068368e-07 3.427920045891213773e-06)
(1.010627295654310982e-03 3.370206571973338321e-07 3.346579421038795867e-06)
(9.980429170838003763e-04 3.269345865563290587e-07 3.353291501586007169e-06)
(9.858526111455019961e-04 3.240724242924611219e-07 3.403923383114982968e-06)
(9.742801874442449158e-04 3.056835621064763549e-07 3.444662171845521334e-06)
(9.634439310678968513e-04 2.877963282540648230e-07 3.402903345728198270e-06)
(9.531435272981265408e-04 2.719554920485530009e-07 3.316938012809754381e-06)
(9.429876200914759452e-04 2.712089736282625331e-07 3.302218605959613745e-06)
(9.330542619229932784e-04 2.671090394218042716e-07 3.413183513714995340e-06)
(9.235043203228228588e-04 2.677257696012717180e-07 3.571731877859555007e-06)
(9.144364204106952138e-04 2.630016928684238206e-07 3.729610256473425540e-06)
(9.059600559890841707e-04 2.379986283785187348e-07 3.806788600326958808e-06)
(8.981714728609785803e-04 2.016170500187099197e-07 3.795224726029035241e-06)
(8.910958687497815911e-04 1.642446013908391415e-07 3.742294287149941635e-06)
(8.847961042054837367e-04 1.213722446374134106e-07 3.663277738414377059e-06)
(8.791384526773820271e-04 1.216714667663354047e-07 3.527207491480578166e-06)
(8.743566771717658885e-04 1.147322832281863007e-07 3.403980025358495475e-06)
(8.707657121098762902e-04 1.035441861285346594e-07 3.242672997863216019e-06)
(8.685078344083619825e-04 1.001923460777293541e-07 3.108073566626186870e-06)
(8.675035321127304430e-04 4.685616233693208898e-08 3.012095243062340071e-06)
(8.678016563718470326e-04 -1.805439529622208021e-08 2.960002261439200220e-06)
(8.694435491781446002e-04 -8.664569230856371481e-08 2.923637631004666386e-06)
(8.724800736529179880e-04 -1.569755741219263218e-07 2.890582590268579813e-06)
(8.767475711236535647e-04 -1.729704543187629020e-07 2.878374982286682038e-06)
(8.821486343659485762e-04 -1.709860155510935269e-07 2.899946924954949533e-06)
(8.888400350164146887e-04 -1.742913875114537498e-07 2.955228494058795432e-06)
(8.969839643363056473e-04 -1.739074956552213229e-07 2.957606027719688968e-06)
(9.064934248202604272e-04 -2.181736797950861162e-07 2.948099235918057579e-06)
(9.173325328107569728e-04 -2.923542432275919096e-07 2.941759199061480462e-06)
(9.295203245556905684e-04 -3.667917913937671439e-07 2.945626342520297888e-06)
(9.429406132535379792e-04 -4.374365613109813145e-07 2.968907736625387897e-06)
(9.575421278506213944e-04 -4.712569377401295069e-07 2.985328440852932814e-06)
(9.732773820230421463e-04 -4.591286260042080609e-07 3.011265227978198581e-06)
(9.899247611195665601e-04 -4.426746571704265080e-07 3.012700957824905007e-06)
(1.007505692228915801e-03 -4.294293685226045963e-07 3.013720570571069103e-06)
(1.026015745979759648e-03 -4.449654237608966451e-07 3.043155509760958103e-06)
(1.045405160758054557e-03 -5.078630281487936938e-07 3.071860388214473041e-06)
(1.065604267611601009e-03 -5.669117141990712277e-07 3.130302992465380408e-06)
(1.086475455788116608e-03 -6.205728236429407035e-07 3.211143041872620343e-06)
(1.107897613908188656e-03 -6.522951501380311857e-07 3.273649341415253277e-06)
(1.129765762839796562e-03 -6.249821689484070729e-07 3.312790483878563072e-06)
(1.152039651629369705e-03 -6.016546538258270888e-07 3.331400811685132410e-06)
(1.174682064472453227e-03 -5.761640361231697823e-07 3.334011744793616940e-06)
(1.197532742817346762e-03 -5.584815177905149974e-07 3.333131880180416250e-06)
(1.220549812336891790e-03 -5.973360915555692628e-07 3.330387390802321163e-06)
(1.243703563274524762e-03 -6.302428447314715052e-07 3.340000472502991684e-06)
(1.266925315206316686e-03 -6.591021241188362289e-07 3.351996735645100677e-06)
(1.290182747739568141e-03 -6.810748200808340064e-07 3.343007953089163725e-06)
(1.313378277234033501e-03 -6.526080609237099916e-07 3.339359089359033010e-06)
(1.336520665122797446e-03 -6.289039163802147110e-07 3.340658574781520792e-06)
(1.359587929889323086e-03 -6.080963674196800520e-07 3.346620615224590568e-06)
(1.382460419885742130e-03 -5.889573760502009545e-07 3.363336580613529867e-06)
(1.405034984979585625e-03 -5.947225975828262368e-07 3.377108692093481530e-06)
(1.427208544073728033e-03 -5.964882421374355874e-07 3.391128550247043552e-06)
(1.448843107925994970e-03 -5.880037097010436744e-07 3.416931130262889283e-06)
(1.469803782919718851e-03 -5.709281907741442697e-07 3.443312964037987885e-06)
(1.489957324802776775e-03 -5.409420520775219947e-07 3.474407072783663409e-06)
(1.509117922686198637e-03 -5.091582565074012312e-07 3.496934035753834163e-06)
(1.527077122863238195e-03 -4.783898599798885850e-07 3.519960236912967194e-06)
(1.543651157920800619e-03 -4.479035775859752614e-07 3.542133755605827276e-06)
(1.558573297603610538e-03 -4.034662699367872227e-07 3.570368951322868916e-06)
(1.571629083237863385e-03 -3.412687211859364413e-07 3.592185698420903475e-06)
(1.582618668533206704e-03 -2.675027899941074986e-07 3.596595949002962102e-06)
(1.591323942710937264e-03 -1.817462100105897771e-07 3.603441306171969928e-06)
(4.864691121047710898e-03 -3.338163935406781758e-07 1.104318434644498046e-05)
(4.875987112178278848e-03 -1.787482672758830209e-07 1.110085187223140157e-05)
(4.879079444673082785e-03 -2.957463792239168705e-08 1.111752090760495728e-05)
(4.881764600932048288e-03 1.025750837446707364e-07 1.111929718226715900e-05)
(4.876133254282645664e-03 2.900272797044490721e-07 1.115553049900341180e-05)
(4.862262952326461621e-03 6.061884375178901303e-07 1.129132395395799655e-05)
(4.840324013410684037e-03 9.312591523345920266e-07 1.151317653724670773e-05)
(4.810732278905250313e-03 1.249968791267932056e-06 1.176510214981008482e-05)
(4.774118520360724066e-03 1.507758409454945627e-06 1.201051058982599922e-05)
(4.731010259302806560e-03 1.553912435972265671e-06 1.223625125548373199e-05)
(4.682150577347645760e-03 1.572614128127147259e-06 1.245786328374559872e-05)
(4.628341968253398692e-03 1.557566370714312524e-06 1.269381484368756382e-05)
(4.570376265156402169e-03 1.548382789983690494e-06 1.295891782360829892e-05)
(4.509049988044430343e-03 1.761264466218246970e-06 1.325737413846643087e-05)
(4.445202594280818660e-03 1.960426629660286574e-06 1.351683729307394554e-05)
(4.379434899667941465e-03 2.140434527995833627e-06 1.363095146771033945e-05)
(4.312229608855148479e-03 2.303025611079666476e-06 1.372665526678961041e-05)
(4.238271878126762329e-03 2.164613765964550991e-06 1.368470852020207921e-05)
(4.170694495243241345e-03 2.023966729053984299e-06 1.346829270826516842e-05)
(4.103780007762664224e-03 1.867493113089180094e-06 1.318275495278615360e-05)
(4.038079315320008793e-03 1.712057135247719155e-06 1.298463366170109105e-05)
(3.973882497014531723e-03 1.771592611373171051e-06 1.282883278139306829e-05)
(3.905749461249287489e-03 1.843644344319858215e-06 1.264404426467770432e-05)
(3.845506458405279718e-03 1.903792296033630060e-06 1.250528043862531267e-05)
(3.787133737112777752e-03 1.975674266990948952e-06 1.238891797506967414e-05)
(3.730859310866650128e-03 1.865796288075124913e-06 1.233873993310613750e-05)
(3.670814251005637390e-03 1.691578247334024059e-06 1.232672969308775949e-05)
(3.618195270866489226e-03 1.545803235323623834e-06 1.249937018167992294e-05)
(3.562254159656887912e-03 1.415841483601912714e-06 1.273797163071864865e-05)
(3.513353165588703215e-03 1.393691297984159086e-06 1.275807355517497729e-05)
(3.461862864823991078e-03 1.390550868637341411e-06 1.247731300906687328e-05)
(3.417971327717385897e-03 1.411002739774241058e-06 1.216035472082084072e-05)
(3.370467571538163839e-03 1.425512388800597534e-06 1.189625250548434351e-05)
(3.325198053225974105e-03 1.356175087045876976e-06 1.153201041036257345e-05)
(3.286198019679239732e-03 1.273866382384207173e-06 1.121340361210303144e-05)
(3.243367497693045234e-03 1.190950871555473503e-06 1.086560316031774940e-05)
(3.201991566986867564e-03 1.118849017104991875e-06 1.060673702415686210e-05)
(3.162393909534926863e-03 1.087671791669483443e-06 1.062507374797327970e-05)
(3.128868743253873739e-03 1.080239463177772259e-06 1.079834832462505608e-05)
(3.092296945336136214e-03 1.018864368495479144e-06 1.092677139250709800e-05)
(3.058110531724938554e-03 9.590617064021693980e-07 1.079533820900724701e-05)
(3.025722426848638687e-03 9.076224203456768069e-07 1.052535778807336728e-05)
(2.993630119174857645e-03 9.059865089994740626e-07 1.048055291347374706e-05)
(2.962350085348720592e-03 8.888784429823187358e-07 1.083088851806838859e-05)
(2.932177236037113253e-03 8.911838221145517936e-07 1.133119723930413890e-05)
(2.903678235939824784e-03 8.739626079937511298e-07 1.182803001350702758e-05)
(2.876915964424456816e-03 7.867850953758166217e-07 1.207531333138102041e-05)
(2.852377730819156618e-03 6.680622155376531600e-07 1.204154917302242965e-05)
(2.830123730268613302e-03 5.546563034134775990e-07 1.187433056301008560e-05)
(2.810279746351377565e-03 4.169285000486591577e-07 1.162026678718848543e-05)
(2.792476832306148380e-03 4.135924793309669861e-07 1.119111257973442276e-05)
(2.777448513446395279e-03 3.855159749326370425e-07 1.080097240934932124e-05)
(2.766193963246319637e-03 3.337971185664532428e-07 1.029175181235877730e-05)
(2.759144636999933103e-03 3.243260099958683041e-07 9.863115098566557453e-06)
(2.756057122186426900e-03 1.516383298714120907e-07 9.558442459804640436e-06)
(2.757111874981102786e-03 -7.100382555655453107e-08 9.391352006344744270e-06)
(2.762376901675440890e-03 -2.801542316007236800e-07 9.275946535716639345e-06)
(2.772075265049336792e-03 -5.076234099045723388e-07 9.171617688869834430e-06)
(2.785631829617100930e-03 -5.767645167539491694e-07 9.133543479942175659e-06)
(2.802871936937830454e-03 -5.658165471460856959e-07 9.202579517726332356e-06)
(2.819544164811707901e-03 -5.817650811961738343e-07 9.362822366528965708e-06)
(2.845310718464702862e-03 -6.007593769453431385e-07 9.370938279580694427e-06)
(2.875444594059301754e-03 -7.478588650200521683e-07 9.340966936769905867e-06)
(2.909702357371879607e-03 -9.720439418522553452e-07 9.320608333898689054e-06)
(2.948379116903461841e-03 -1.226291934733035209e-06 9.333621902022057505e-06)
(2.985920113046342233e-03 -1.431756586026115780e-06 9.392384974093660646e-06)
(3.031977520725382888e-03 -1.553725575678085204e-06 9.443594201666749739e-06)
(3.081788632801729655e-03 -1.509210329955809952e-06 9.525217331598387441e-06)
(3.129318644370877693e-03 -1.454747248963450952e-06 9.516155771331141826e-06)
(3.184782107904603806e-03 -1.418050617597904818e-06 9.519623425815972292e-06)
(3.237752964673918429e-03 -1.463012190955612379e-06 9.597077643241792635e-06)
(3.298815769809861336e-03 -1.662404854777911024e-06 9.687942225604864738e-06)
(3.357123852445066843e-03 -1.848953076432682678e-06 9.857226804124303432e-06)
(3.422743859652793187e-03 -2.018374627535645838e-06 1.011154064037224527e-05)
(3.484449634889864780e-03 -2.096457947666837895e-06 1.029178294582047989e-05)
(3.547389979606958670e-03 -2.008422025874424161e-06 1.039884829932668562e-05)
(3.617281822687806302e-03 -1.930623186272619912e-06 1.045762889716261650e-05)
(3.682381869885207899e-03 -1.846409910276071720e-06 1.044977360920470899e-05)
(3.747994859690090969e-03 -1.782875053903929145e-06 1.043062152697990709e-05)
(3.813945420823239112e-03 -1.891906599269852365e-06 1.040610700219998276e-05)
(3.886241705843812132e-03 -1.994219639553871549e-06 1.043612849221715419e-05)
(3.952520976268707534e-03 -2.070877157970737433e-06 1.045737640384459443e-05)
(4.018763607958671102e-03 -2.124772685743984493e-06 1.041322388288104186e-05)
(4.084558884169836590e-03 -2.028123152180918009e-06 1.038540191613679866e-05)
(4.149849217238640864e-03 -1.951411727183050536e-06 1.037274683021792936e-05)
(4.214675405658762850e-03 -1.883934608480487958e-06 1.037449530391335981e-05)
(4.278668356162610917e-03 -1.821833927998154643e-06 1.040949813703576549e-05)
(4.341512055076768295e-03 -1.838563907181586187e-06 1.043524386594419000e-05)
(4.402902351834657967e-03 -1.840721585807670969e-06 1.046159720556961256e-05)
(4.462404005420776351e-03 -1.811435576723530904e-06 1.052410724473749907e-05)
(4.519617130602106465e-03 -1.755830861557227209e-06 1.058814470045073106e-05)
(4.574141320646053430e-03 -1.660656657091373512e-06 1.066638476040358393e-05)
(4.625423531818518078e-03 -1.560666955447629414e-06 1.071807884421330137e-05)
(4.672837689452781322e-03 -1.464065945776099140e-06 1.077104965222003289e-05)
(4.715840331036852233e-03 -1.368605106588533109e-06 1.082119458750158898e-05)
(4.753637917160729968e-03 -1.230357651193009920e-06 1.088960570561505745e-05)
(4.793461662221103203e-03 -1.040649622177371290e-06 1.095615856298668121e-05)
(4.819069103904415931e-03 -8.143203954697438846e-07 1.095163250181323077e-05)
(4.845581251189895119e-03 -5.534054741711517124e-07 1.097247835527391767e-05)
(7.967622545892770816e-03 -1.212231397371616735e-06 1.855281086143908406e-05)
(7.975810410870295963e-03 -5.493017707072580489e-07 1.864182561025502078e-05)
(7.986230161766949207e-03 2.621477491767988465e-07 1.868766725359705694e-05)
(7.984151136969701301e-03 1.081309367229795928e-06 1.869725288367805917e-05)
(7.976868870206925421e-03 1.869853264747002551e-06 1.878298901879196073e-05)
(7.964456985333682668e-03 2.584950021699730628e-06 1.902326521550586519e-05)
(7.931612375624983585e-03 3.522703493173037426e-06 1.938067604239100726e-05)
(7.896824503179761950e-03 4.005643542908055747e-06 1.980734322986513497e-05)
(7.849697771516991884e-03 4.773530085915015693e-06 2.023339197600626700e-05)
(7.794077200107244960e-03 5.422205366545889577e-06 2.066777838367309618e-05)
(7.730136009582508697e-03 6.009145249843112789e-06 2.108988544707661892e-05)
(7.657103399063220142e-03 6.297240949375395501e-06 2.153332753446783861e-05)
(7.573091443132749789e-03 6.740035333689140929e-06 2.198708352942131314e-05)
(7.489276354438626458e-03 7.177485143532894150e-06 2.251083723297010267e-05)
(7.403509264200499110e-03 7.342412254872282978e-06 2.297901473701016367e-05)
(7.310573652207533538e-03 7.189900916166044625e-06 2.323092431299563206e-05)
(7.218970332010124155e-03 7.420246761352154185e-06 2.345838484533438714e-05)
(7.122448538398319824e-03 7.494464578473920049e-06 2.347120318037484760e-05)
(7.032308931850888255e-03 7.544923845519689823e-06 2.322459196856243923e-05)
(6.937093649753554858e-03 7.513986693017030743e-06 2.281285186776043202e-05)
(6.842539463049981084e-03 7.290095813193853486e-06 2.251239822830406254e-05)
(6.750200344129834475e-03 7.206527327302711870e-06 2.229622840905068064e-05)
(6.662051565565365804e-03 6.974909708646757915e-06 2.208735104361560749e-05)
(6.578281669700159970e-03 6.557422889217012821e-06 2.188630469199416613e-05)
(6.489201604157677876e-03 6.467023957353047207e-06 2.166577974458903640e-05)
(6.409964995279381246e-03 6.298293719309140017e-06 2.157219538485333581e-05)
(6.327175167162625742e-03 6.020602062699485388e-06 2.157186733699939572e-05)
(6.248503158603120958e-03 5.884257074851019578e-06 2.186933060027419730e-05)
(6.173254812388231753e-03 5.795443582525671549e-06 2.232578180207967915e-05)
(6.099353102911167501e-03 5.589003661657906396e-06 2.240079070910652029e-05)
(6.030911817846547340e-03 5.214875140744779832e-06 2.198304123682226860e-05)
(5.960054955306387167e-03 4.977991035069784726e-06 2.144118967205448076e-05)
(5.896252831731248374e-03 4.862338218960232498e-06 2.104374881185305443e-05)
(5.830968806748185358e-03 4.658474584957355259e-06 2.050150264385498710e-05)
(5.768208313182491588e-03 4.562146419270310923e-06 1.994690855790413143e-05)
(5.706812919760414007e-03 4.398062592087741723e-06 1.936508316148187334e-05)
(5.648486112070008960e-03 4.244181359577284920e-06 1.888045701608113627e-05)
(5.592539833873477750e-03 4.106667895399502355e-06 1.878258432519733936e-05)
(5.539254933143181181e-03 3.947782762354574415e-06 1.893869300837829051e-05)
(5.488043250346000615e-03 3.693567176531632638e-06 1.914065564951399645e-05)
(5.436032475821361842e-03 3.494160511512683152e-06 1.896494339092553549e-05)
(5.391074830995505086e-03 3.376356812262828834e-06 1.859064299141302949e-05)
(5.342047488379162573e-03 3.353910759170266269e-06 1.859122701836823778e-05)
(5.299724487301421018e-03 3.217754419639920541e-06 1.917217464357823004e-05)
(5.253802201623709173e-03 3.097428234618472875e-06 1.991164488634187399e-05)
(5.215488546166980460e-03 2.879314461209648650e-06 2.071235465047281519e-05)
(5.175337089463902772e-03 2.649413140664797846e-06 2.119956000221676317e-05)
(5.139089011378227684e-03 2.403983943108408432e-06 2.125416183561061703e-05)
(5.106729748912656672e-03 2.261599773993257938e-06 2.098590467446133725e-05)
(5.077433351592039457e-03 1.979246625770419325e-06 2.040976300771092829e-05)
(5.051855086900667278e-03 1.778383728442639133e-06 1.975541897346922310e-05)
(5.031093334119367093e-03 1.390401626870008536e-06 1.911153383270555961e-05)
(5.016327987666002915e-03 8.271602513232188925e-07 1.829065970444548978e-05)
(5.008330848302609654e-03 4.342727233695871710e-07 1.752236316249033396e-05)
(5.002677101916352606e-03 2.565650188834363659e-08 1.690015322496971734e-05)
(5.008219037249794781e-03 -4.821678641042964536e-07 1.656340383628618579e-05)
(5.015600633467450636e-03 -7.825048815409581706e-07 1.633629750447726498e-05)
(5.035009359642626456e-03 -1.267433120841577423e-06 1.617529792183231187e-05)
(5.056451817300526737e-03 -1.726590602223100555e-06 1.612363596471708084e-05)
(5.088813653468573714e-03 -2.072054505587427155e-06 1.626167312078004068e-05)
(5.122849702112129353e-03 -2.602899263238436037e-06 1.651702937446125564e-05)
(5.163690919925679329e-03 -3.173891569766929493e-06 1.654971943207622312e-05)
(5.212546431212836465e-03 -3.665453582488418110e-06 1.648812489634901934e-05)
(5.266506988851719050e-03 -3.929811305702743298e-06 1.642768242259243797e-05)
(5.328555022511500053e-03 -4.450730930525516793e-06 1.646308889965146960e-05)
(5.395427856150828566e-03 -4.683790651638382495e-06 1.655979733892679859e-05)
(5.469191636222800121e-03 -5.167575228710660440e-06 1.660405214838973811e-05)
(5.543722947546859611e-03 -5.408458220861129726e-06 1.669631491546445752e-05)
(5.626741872302682551e-03 -5.752019888442758822e-06 1.673534268945742643e-05)
(5.708951296574968880e-03 -6.101060574219414823e-06 1.672821985707290213e-05)
(5.795312855230946338e-03 -6.392676521975880706e-06 1.682974106225297917e-05)
(5.885567993363385875e-03 -6.584854216568222934e-06 1.697885141412753385e-05)
(5.980597728196505522e-03 -6.897820677033007804e-06 1.726725069155392376e-05)
(6.076922610643223713e-03 -7.005183573802352690e-06 1.766309568128458468e-05)
(6.170257619371296610e-03 -7.063635117160358400e-06 1.792223656980341848e-05)
(6.269653063986646742e-03 -7.265914717326740513e-06 1.810772057134140642e-05)
(6.366782320924075159e-03 -7.271290290997611989e-06 1.818096657801220804e-05)
(6.461776821705746653e-03 -7.500799194171984613e-06 1.815937685175392468e-05)
(6.566169435889076741e-03 -7.449416930310919952e-06 1.809057519061070489e-05)
(6.658226781530761709e-03 -7.513481134532532686e-06 1.803916885030000837e-05)
(6.754623440130049124e-03 -7.452493086449317861e-06 1.804236938364828666e-05)
(6.848779034905641029e-03 -7.264472343701902125e-06 1.805766143859880148e-05)
(6.939048761788485335e-03 -7.272724040270038141e-06 1.798919825197421767e-05)
(7.032380351122602749e-03 -7.251761996468841591e-06 1.791155899695789905e-05)
(7.119835466355517277e-03 -7.101717038367507575e-06 1.782803578765156880e-05)
(7.208524799585723161e-03 -7.135682946270808187e-06 1.783686474671187283e-05)
(7.291924839312530909e-03 -6.940489070587438770e-06 1.787109036963000446e-05)
(7.371161110127245203e-03 -6.750916752328261498e-06 1.788180373222273751e-05)
(7.447056220177607558e-03 -6.539760106938812743e-06 1.789199014045525754e-05)
(7.520741520968075161e-03 -6.323587661866243581e-06 1.795145191631284108e-05)
(7.588227352754557675e-03 -6.037924715598988039e-06 1.798970619636719548e-05)
(7.650570730211130911e-03 -5.718856440389351355e-06 1.805567872598053507e-05)
(7.714117062837181141e-03 -5.347325351119487321e-06 1.815216316420058696e-05)
(7.763918279101286214e-03 -4.904873733935252853e-06 1.821165923303062732e-05)
(7.814387920588729275e-03 -4.431633837797319612e-06 1.826648237560482012e-05)
(7.855535188558660301e-03 -3.853671436216439985e-06 1.835586780945400320e-05)
(7.887145656478855571e-03 -3.212455702584022210e-06 1.841976656230412618e-05)
(7.922165549341409277e-03 -2.729246599043619876e-06 1.844075323628318756e-05)
(7.947145465207677145e-03 -1.984782742423572281e-06 1.846342286509415655e-05)
(1.094559814048736042e-02 -1.830403227357288912e-06 2.596034974634428766e-05)
(1.095187410826061955e-02 -4.316561435528111562e-07 2.606208493693492223e-05)
(1.095394682274934001e-02 1.108384957757995184e-06 2.611571668591249331e-05)
(1.095200023079510865e-02 2.671239036287282745e-06 2.617648869293469924e-05)
(1.094002171320282088e-02 4.202196966673289106e-06 2.632427838986985960e-05)
(1.091824580799638858e-02 5.645371579241420176e-06 2.662105143888974647e-05)
(1.088722957441952410e-02 7.053589300915870727e-06 2.707552045883681571e-05)
(1.084399404542272377e-02 8.493232859213429572e-06 2.760928894085115735e-05)
(1.078576499880035469e-02 9.731564484880471741e-06 2.816635340054308339e-05)
(1.071585695114983180e-02 1.094800746660297292e-05 2.879749330483589304e-05)
(1.064403707930952798e-02 1.179272103181168831e-05 2.942208526511659592e-05)
(1.055535394237041430e-02 1.273382098408948633e-05 3.004009635411902663e-05)
(1.045934991167694894e-02 1.354173102057348594e-05 3.068553308458384256e-05)
(1.035890627849747961e-02 1.416238556157086945e-05 3.135604397998370649e-05)
(1.025177768230300761e-02 1.443760014039160507e-05 3.202267898623442383e-05)
(1.014437475289422554e-02 1.479297822343507250e-05 3.251005301921273716e-05)
(1.003045160320313947e-02 1.500210691598508968e-05 3.286071660058085663e-05)
(9.914989396823541828e-03 1.510327604334644951e-05 3.298150733795065717e-05)
(9.800561837358707715e-03 1.510670111316994090e-05 3.280716508475624868e-05)
(9.688912235295729994e-03 1.488915000462148926e-05 3.242205885603822980e-05)
(9.579953503501459702e-03 1.459201361566561390e-05 3.211275983250370616e-05)
(9.469446448167381097e-03 1.429585070318546485e-05 3.186725835078404220e-05)
(9.362594465493654164e-03 1.398472679792140903e-05 3.163292270718391148e-05)
(9.258057607951701226e-03 1.347609641559221309e-05 3.135995099219122755e-05)
(9.159019204453134125e-03 1.316769997301516438e-05 3.108495783175911403e-05)
(9.058602025164331356e-03 1.281369429808148466e-05 3.094092683084952047e-05)
(8.963668289022331398e-03 1.233891224717835358e-05 3.101121420433726981e-05)
(8.867458426307111077e-03 1.192658645694100053e-05 3.143306806897303376e-05)
(8.778907928483636186e-03 1.160695557778512173e-05 3.204989326650596783e-05)
(8.691017974846275418e-03 1.118381817925592799e-05 3.221035544974719617e-05)
(8.602095609828219747e-03 1.059625701910205278e-05 3.178970838696884522e-05)
(8.523035896550158752e-03 1.022411929887598833e-05 3.117672755914920626e-05)
(8.443518775464151777e-03 9.940850121445574683e-06 3.068453239757773786e-05)
(8.367035911866712444e-03 9.506068178577558629e-06 3.011102051912748417e-05)
(8.294021654652317110e-03 9.256884201387355807e-06 2.934214824637938662e-05)
(8.220994290487185219e-03 8.908928706201861610e-06 2.854052527382625040e-05)
(8.150714775085653521e-03 8.547123623412116800e-06 2.779586551837983391e-05)
(8.084096311591137257e-03 8.235769809521778281e-06 2.739724402370987815e-05)
(8.020453983265915174e-03 7.916552067700941383e-06 2.739238041369813608e-05)
(7.961483462068798256e-03 7.440708244866169556e-06 2.755853972186221015e-05)
(7.901790865944363640e-03 7.035815360176175511e-06 2.741712206578035403e-05)
(7.849227734025070180e-03 6.790586224882089783e-06 2.705710296369743205e-05)
(7.794211195900934905e-03 6.675216029171429802e-06 2.715777790545165411e-05)
(7.741605628703092552e-03 6.434682540967017885e-06 2.791332363499943707e-05)
(7.687704307258127860e-03 6.146576014158363152e-06 2.874348871979140110e-05)
(7.641617349667142317e-03 5.729620381847781177e-06 2.953149009065918933e-05)
(7.595706630064433598e-03 5.295610209519068395e-06 3.017793444064238972e-05)
(7.559112228278334379e-03 4.723088296958967970e-06 3.045267247380929957e-05)
(7.522951246712408259e-03 4.251132959634227424e-06 3.009952122685536870e-05)
(7.491443104773907839e-03 3.714602815760921166e-06 2.922700493025250196e-05)
(7.465580312739263612e-03 3.115163040593976792e-06 2.832584629735842584e-05)
(7.446163052523257012e-03 2.473373531373463307e-06 2.751042236857921796e-05)
(7.430455571654118879e-03 1.487439789076529175e-06 2.641017150968090764e-05)
(7.427805073438092411e-03 5.849309619184535769e-07 2.535596646487981936e-05)
(7.430018783224121015e-03 -3.662666968881259987e-07 2.446407800593410439e-05)
(7.445660378368003374e-03 -1.250379273577926147e-06 2.387009323457155938e-05)
(7.464876181047753675e-03 -2.322376303575753815e-06 2.355687678005287072e-05)
(7.494642452797135868e-03 -3.261015796408747512e-06 2.341303595351384534e-05)
(7.529023356672317688e-03 -4.171156794337145106e-06 2.334750051407415481e-05)
(7.575170438712955714e-03 -4.906858117263804161e-06 2.354413288520169315e-05)
(7.626073883641382861e-03 -5.835850505430193450e-06 2.385006448635837865e-05)
(7.686662352331020617e-03 -6.841928031786637189e-06 2.392324070913417859e-05)
(7.755768578393719762e-03 -7.819700245349987030e-06 2.384289321684398785e-05)
(7.834314183504593673e-03 -8.665765967238930209e-06 2.381345365836168071e-05)
(7.918910805043763781e-03 -9.703107011450319588e-06 2.390225998362711105e-05)
(8.009331220367326559e-03 -1.042935662849395091e-05 2.395326630086059056e-05)
(8.106116303731598915e-03 -1.124202297337802859e-05 2.394572927887370838e-05)
(8.209567270056844154e-03 -1.192845569836987751e-05 2.400928257597042176e-05)
(8.317953838857560997e-03 -1.246016100095561042e-05 2.406416904083688915e-05)
(8.426589961015791205e-03 -1.297298562939480586e-05 2.412010506155804493e-05)
(8.540115453085486696e-03 -1.351101694894966620e-05 2.424347584763348091e-05)
(8.659910219726625613e-03 -1.390225177498757058e-05 2.445901769328489409e-05)
(8.776571777995571116e-03 -1.432495955973212150e-05 2.484874173065892150e-05)
(8.895090740278803129e-03 -1.470792014704041846e-05 2.534250129334212885e-05)
(9.017399879754469522e-03 -1.487623959470948774e-05 2.565316135537764708e-05)
(9.141919475932326622e-03 -1.511355631595358932e-05 2.586807576775740459e-05)
(9.258672887655559208e-03 -1.507532523677483436e-05 2.597274509532945108e-05)
(9.378650599118031755e-03 -1.516616404858097712e-05 2.597813659748703211e-05)
(9.498750216646135308e-03 -1.516277559067798008e-05 2.587207844399765812e-05)