/*--------------------------------*- C++ -*----------------------------------*\
| =========                 |                                                 |
| \\      /  F ield         | OpenFOAM: The Open Source CFD Toolbox           |
|  \\    /   O peration     | Version:  2.3.x                                 |
|   \\  /    A nd           | Web:      www.OpenFOAM.org                      |
|    \\/     M anipulation  |                                                 |
\*---------------------------------------------------------------------------*/
FoamFile
{
    version     2.0;
    format      ascii;
    class       volScalarField;
    location    "0";
    object      V;
}
// * * * * * * * * * * * * * * * * * * * * * * * * * * * * * * * * * * * * * //

dimensions      [0 3 0 0 0 0 0];

internalField   nonuniform List<scalar> 
14751
(
4.41575e-05
4.41582e-05
4.41601e-05
4.41604e-05
4.41586e-05
4.4157e-05
4.41558e-05
4.41545e-05
4.41532e-05
4.4152e-05
4.41508e-05
4.415e-05
4.41494e-05
4.41489e-05
4.41485e-05
4.4148e-05
4.41476e-05
4.41473e-05
4.41469e-05
4.41466e-05
4.41464e-05
4.41463e-05
4.41461e-05
4.41459e-05
4.41458e-05
4.41457e-05
4.41455e-05
4.41454e-05
4.41453e-05
4.41452e-05
4.41451e-05
4.4145e-05
4.41449e-05
4.41448e-05
4.41447e-05
4.41454e-05
4.41469e-05
4.41484e-05
4.415e-05
4.4153e-05
4.41578e-05
4.4162e-05
4.41653e-05
4.41671e-05
4.41676e-05
4.41681e-05
4.41686e-05
4.41691e-05
4.41696e-05
4.417e-05
4.41705e-05
4.41705e-05
4.417e-05
4.41696e-05
4.41691e-05
4.41686e-05
4.41681e-05
4.41676e-05
4.41671e-05
4.41652e-05
4.4162e-05
4.41578e-05
4.41531e-05
4.41501e-05
4.41486e-05
4.4147e-05
4.41456e-05
4.41451e-05
4.41455e-05
4.4146e-05
4.41465e-05
4.41469e-05
4.41474e-05
4.41479e-05
4.41484e-05
4.415e-05
4.41528e-05
4.41565e-05
4.41607e-05
4.41633e-05
4.41647e-05
4.4166e-05
4.41673e-05
4.41678e-05
4.41675e-05
4.41673e-05
4.4167e-05
4.41667e-05
4.41664e-05
4.41661e-05
4.41658e-05
4.41655e-05
4.4165e-05
4.41644e-05
4.41638e-05
4.41629e-05
4.41618e-05
4.41603e-05
4.41585e-05
4.61218e-05
4.6141e-05
4.62318e-05
4.63696e-05
4.65506e-05
4.67536e-05
4.69711e-05
4.71976e-05
4.74271e-05
4.76601e-05
4.78942e-05
4.81285e-05
4.83616e-05
4.8592e-05
4.8819e-05
4.90415e-05
4.92587e-05
4.94694e-05
4.96733e-05
4.98698e-05
5.00582e-05
5.0238e-05
5.04087e-05
5.05701e-05
5.07223e-05
5.08649e-05
5.09982e-05
5.11222e-05
5.12376e-05
5.13446e-05
5.14431e-05
5.15337e-05
5.16165e-05
5.16921e-05
5.17607e-05
5.18232e-05
5.188e-05
5.1931e-05
5.19767e-05
5.20179e-05
5.20548e-05
5.20871e-05
5.21151e-05
5.21385e-05
5.21574e-05
5.21726e-05
5.21845e-05
5.2193e-05
5.21983e-05
5.22004e-05
5.21993e-05
5.21946e-05
5.21864e-05
5.21749e-05
5.216e-05
5.21414e-05
5.21192e-05
5.2093e-05
5.20626e-05
5.20271e-05
5.19862e-05
5.19401e-05
5.18885e-05
5.18317e-05
5.17694e-05
5.17006e-05
5.1625e-05
5.15427e-05
5.14533e-05
5.13558e-05
5.125e-05
5.11356e-05
5.10122e-05
5.08797e-05
5.0738e-05
5.05877e-05
5.04287e-05
5.02605e-05
5.00831e-05
4.98965e-05
4.97011e-05
4.94976e-05
4.92868e-05
4.90691e-05
4.88457e-05
4.86182e-05
4.83872e-05
4.81542e-05
4.792e-05
4.7686e-05
4.74533e-05
4.72228e-05
4.69997e-05
4.67869e-05
4.6591e-05
4.6418e-05
4.62742e-05
4.61751e-05
4.61382e-05
4.8168e-05
4.81989e-05
4.83577e-05
4.86003e-05
4.89208e-05
4.92818e-05
4.96689e-05
5.00739e-05
5.04857e-05
5.09046e-05
5.13268e-05
5.17504e-05
5.2173e-05
5.25922e-05
5.30066e-05
5.34142e-05
5.38129e-05
5.42009e-05
5.45773e-05
5.4941e-05
5.52905e-05
5.56249e-05
5.59431e-05
5.62449e-05
5.65299e-05
5.67978e-05
5.70487e-05
5.72826e-05
5.75007e-05
5.7703e-05
5.78897e-05
5.80615e-05
5.82189e-05
5.83626e-05
5.84932e-05
5.86118e-05
5.87191e-05
5.88155e-05
5.89017e-05
5.89785e-05
5.90465e-05
5.9106e-05
5.91575e-05
5.9201e-05
5.92368e-05
5.92658e-05
5.92882e-05
5.93042e-05
5.9314e-05
5.93176e-05
5.93151e-05
5.93063e-05
5.92909e-05
5.92692e-05
5.92409e-05
5.92057e-05
5.91635e-05
5.91137e-05
5.9056e-05
5.89893e-05
5.89131e-05
5.88275e-05
5.87316e-05
5.86251e-05
5.85074e-05
5.83774e-05
5.82346e-05
5.80786e-05
5.79087e-05
5.77238e-05
5.75233e-05
5.73069e-05
5.7074e-05
5.68243e-05
5.65579e-05
5.62755e-05
5.59767e-05
5.56613e-05
5.53295e-05
5.49821e-05
5.46199e-05
5.42436e-05
5.38552e-05
5.34553e-05
5.30468e-05
5.26319e-05
5.22122e-05
5.17903e-05
5.13676e-05
5.09468e-05
5.05293e-05
5.01171e-05
4.97192e-05
4.93405e-05
4.89929e-05
4.8687e-05
4.8434e-05
4.82604e-05
4.81976e-05
5.03026e-05
5.03452e-05
5.05578e-05
5.08818e-05
5.13097e-05
5.17939e-05
5.23144e-05
5.28602e-05
5.34161e-05
5.39826e-05
5.45544e-05
5.51296e-05
5.57048e-05
5.62768e-05
5.68436e-05
5.74023e-05
5.79498e-05
5.84836e-05
5.90021e-05
5.95039e-05
5.99869e-05
6.04499e-05
6.08913e-05
6.13107e-05
6.17075e-05
6.20811e-05
6.24317e-05
6.27589e-05
6.30643e-05
6.33479e-05
6.36101e-05
6.38514e-05
6.40727e-05
6.42748e-05
6.44587e-05
6.46254e-05
6.4776e-05
6.49112e-05
6.5032e-05
6.5139e-05
6.5233e-05
6.53152e-05
6.53865e-05
6.5447e-05
6.54974e-05
6.5538e-05
6.55694e-05
6.55919e-05
6.56055e-05
6.56104e-05
6.56067e-05
6.55942e-05
6.55727e-05
6.55422e-05
6.55024e-05
6.5453e-05
6.53935e-05
6.53234e-05
6.52421e-05
6.51489e-05
6.5043e-05
6.49239e-05
6.47907e-05
6.4642e-05
6.44769e-05
6.42947e-05
6.40945e-05
6.38754e-05
6.36365e-05
6.33768e-05
6.30955e-05
6.27922e-05
6.24661e-05
6.21171e-05
6.17454e-05
6.13514e-05
6.09349e-05
6.0496e-05
6.00348e-05
5.95536e-05
5.90533e-05
5.85345e-05
5.79997e-05
5.74505e-05
5.68907e-05
5.63234e-05
5.57509e-05
5.51768e-05
5.4603e-05
5.40331e-05
5.34687e-05
5.29123e-05
5.2376e-05
5.18663e-05
5.13992e-05
5.09894e-05
5.06521e-05
5.0422e-05
5.03399e-05
5.25259e-05
5.2579e-05
5.28333e-05
5.32208e-05
5.37327e-05
5.43149e-05
5.4942e-05
5.56008e-05
5.6273e-05
5.69583e-05
5.76508e-05
5.83486e-05
5.90477e-05
5.97442e-05
6.04355e-05
6.11179e-05
6.17873e-05
6.24405e-05
6.30756e-05
6.36907e-05
6.42833e-05
6.48522e-05
6.53952e-05
6.59118e-05
6.64014e-05
6.68629e-05
6.72965e-05
6.77018e-05
6.80803e-05
6.84321e-05
6.87574e-05
6.9057e-05
6.9332e-05
6.95833e-05
6.9812e-05
7.00194e-05
7.02069e-05
7.03752e-05
7.05258e-05
7.06593e-05
7.07768e-05
7.08796e-05
7.09685e-05
7.10441e-05
7.11069e-05
7.11576e-05
7.11968e-05
7.12248e-05
7.12418e-05
7.1248e-05
7.12433e-05
7.12277e-05
7.12009e-05
7.11628e-05
7.11132e-05
7.10516e-05
7.09774e-05
7.089e-05
7.07887e-05
7.06724e-05
7.05403e-05
7.03916e-05
7.02255e-05
7.00402e-05
6.98347e-05
6.96081e-05
6.93591e-05
6.90869e-05
6.87902e-05
6.84679e-05
6.81191e-05
6.77432e-05
6.73393e-05
6.69075e-05
6.64483e-05
6.59623e-05
6.54492e-05
6.49094e-05
6.43431e-05
6.37526e-05
6.31393e-05
6.2504e-05
6.18495e-05
6.11781e-05
6.04944e-05
5.98023e-05
5.91053e-05
5.84074e-05
5.77111e-05
5.70209e-05
5.63378e-05
5.56648e-05
5.50164e-05
5.44005e-05
5.38367e-05
5.33431e-05
5.29386e-05
5.26637e-05
5.25669e-05
5.48391e-05
5.49034e-05
5.51946e-05
5.56349e-05
5.62138e-05
5.6876e-05
5.75907e-05
5.83425e-05
5.91103e-05
5.98932e-05
6.06847e-05
6.14833e-05
6.22846e-05
6.3084e-05
6.38786e-05
6.46636e-05
6.54341e-05
6.61863e-05
6.69179e-05
6.76266e-05
6.83099e-05
6.89663e-05
6.95936e-05
7.0191e-05
7.07578e-05
7.12926e-05
7.17959e-05
7.22667e-05
7.27065e-05
7.31155e-05
7.34939e-05
7.38426e-05
7.41627e-05
7.44553e-05
7.47217e-05
7.49634e-05
7.51816e-05
7.53777e-05
7.5553e-05
7.57084e-05
7.5845e-05
7.59646e-05
7.60678e-05
7.61557e-05
7.6229e-05
7.62881e-05
7.63337e-05
7.63663e-05
7.6386e-05
7.63932e-05
7.63877e-05
7.63694e-05
7.63382e-05
7.62938e-05
7.6236e-05
7.61642e-05
7.60777e-05
7.59759e-05
7.58577e-05
7.57223e-05
7.55688e-05
7.53958e-05
7.52025e-05
7.49868e-05
7.47476e-05
7.44838e-05
7.41942e-05
7.38774e-05
7.3532e-05
7.3157e-05
7.27514e-05
7.23144e-05
7.18453e-05
7.13441e-05
7.08117e-05
7.02488e-05
6.9655e-05
6.90311e-05
6.83771e-05
6.76961e-05
6.69892e-05
6.62572e-05
6.55034e-05
6.47307e-05
6.39441e-05
6.31487e-05
6.23486e-05
6.15484e-05
6.07512e-05
5.99618e-05
5.91809e-05
5.84115e-05
5.76703e-05
5.69659e-05
5.63216e-05
5.57586e-05
5.52992e-05
5.49883e-05
5.48806e-05
5.72444e-05
5.73198e-05
5.7642e-05
5.81264e-05
5.8761e-05
5.94909e-05
6.02801e-05
6.1111e-05
6.196e-05
6.28254e-05
6.37004e-05
6.45842e-05
6.54721e-05
6.63588e-05
6.7241e-05
6.81133e-05
6.89695e-05
6.98055e-05
7.06185e-05
7.14059e-05
7.21654e-05
7.28955e-05
7.35938e-05
7.42593e-05
7.48913e-05
7.54884e-05
7.60509e-05
7.65774e-05
7.70694e-05
7.75271e-05
7.79507e-05
7.83412e-05
7.86997e-05
7.90275e-05
7.93261e-05
7.9597e-05
7.98416e-05
8.00615e-05
8.02581e-05
8.04324e-05
8.05857e-05
8.07199e-05
8.08357e-05
8.09343e-05
8.10165e-05
8.10829e-05
8.11341e-05
8.11706e-05
8.11928e-05
8.12008e-05
8.11946e-05
8.11741e-05
8.11391e-05
8.10893e-05
8.10245e-05
8.09438e-05
8.08468e-05
8.07325e-05
8.06e-05
8.04481e-05
8.02759e-05
8.00819e-05
7.98651e-05
7.96232e-05
7.93551e-05
7.90595e-05
7.8735e-05
7.83801e-05
7.79934e-05
7.75736e-05
7.71196e-05
7.66308e-05
7.61061e-05
7.55459e-05
7.49516e-05
7.43238e-05
7.36622e-05
7.29676e-05
7.22402e-05
7.14832e-05
7.06977e-05
6.98843e-05
6.90466e-05
6.81879e-05
6.7314e-05
6.64306e-05
6.55429e-05
6.4656e-05
6.37732e-05
6.29e-05
6.20359e-05
6.11842e-05
6.03633e-05
5.95828e-05
5.8869e-05
5.82463e-05
5.77404e-05
5.73996e-05
5.72837e-05
5.9744e-05
5.9832e-05
6.01832e-05
6.07064e-05
6.13877e-05
6.21763e-05
6.30305e-05
6.39306e-05
6.48507e-05
6.5788e-05
6.67355e-05
6.76935e-05
6.86568e-05
6.96197e-05
7.05786e-05
7.1527e-05
7.2458e-05
7.33666e-05
7.425e-05
7.51053e-05
7.59304e-05
7.67239e-05
7.74835e-05
7.82078e-05
7.88962e-05
7.95472e-05
8.01613e-05
8.07365e-05
8.1274e-05
8.17741e-05
8.22371e-05
8.2664e-05
8.3056e-05
8.34146e-05
8.37413e-05
8.40376e-05
8.43051e-05
8.45456e-05
8.47607e-05
8.49515e-05
8.51194e-05
8.52661e-05
8.53928e-05
8.55006e-05
8.55906e-05
8.56632e-05
8.57193e-05
8.57593e-05
8.57835e-05
8.57922e-05
8.57854e-05
8.57629e-05
8.57247e-05
8.56702e-05
8.55992e-05
8.55109e-05
8.54047e-05
8.52797e-05
8.51346e-05
8.49684e-05
8.47801e-05
8.45679e-05
8.43305e-05
8.4066e-05
8.37727e-05
8.34495e-05
8.30947e-05
8.27066e-05
8.22838e-05
8.18248e-05
8.13287e-05
8.07946e-05
8.02215e-05
7.96099e-05
7.89619e-05
7.82778e-05
7.75574e-05
7.68018e-05
7.60111e-05
7.51887e-05
7.43353e-05
7.34515e-05
7.25409e-05
7.16075e-05
7.06572e-05
6.96969e-05
6.87326e-05
6.777e-05
6.68125e-05
6.58661e-05
6.49292e-05
6.40052e-05
6.31137e-05
6.22653e-05
6.14893e-05
6.08134e-05
6.0267e-05
5.99005e-05
5.97783e-05
6.23396e-05
6.24408e-05
6.28177e-05
6.33756e-05
6.40985e-05
6.49405e-05
6.58541e-05
6.68171e-05
6.78016e-05
6.88034e-05
6.98159e-05
7.08403e-05
7.18714e-05
7.2903e-05
7.3931e-05
7.4948e-05
7.59461e-05
7.69198e-05
7.78659e-05
7.87814e-05
7.96644e-05
8.05141e-05
8.13279e-05
8.21044e-05
8.2843e-05
8.35421e-05
8.42023e-05
8.48211e-05
8.53994e-05
8.59376e-05
8.64358e-05
8.68953e-05
8.73174e-05
8.77035e-05
8.80552e-05
8.83743e-05
8.86626e-05
8.89217e-05
8.91534e-05
8.9359e-05
8.954e-05
8.96982e-05
8.98348e-05
8.99511e-05
9.0048e-05
9.01263e-05
9.01867e-05
9.02298e-05
9.02559e-05
9.02653e-05
9.0258e-05
9.02338e-05
9.01925e-05
9.01338e-05
9.00573e-05
8.99622e-05
8.98478e-05
8.9713e-05
8.95566e-05
8.93776e-05
8.91746e-05
8.89459e-05
8.86901e-05
8.84051e-05
8.80892e-05
8.77411e-05
8.7359e-05
8.69413e-05
8.64861e-05
8.59922e-05
8.54583e-05
8.48837e-05
8.42672e-05
8.36097e-05
8.29137e-05
8.21797e-05
8.14074e-05
8.05978e-05
7.97511e-05
7.88709e-05
7.79573e-05
7.70109e-05
7.60353e-05
7.50347e-05
7.40155e-05
7.29858e-05
7.19525e-05
7.09215e-05
6.98967e-05
6.88845e-05
6.78817e-05
6.68917e-05
6.59354e-05
6.50243e-05
6.41907e-05
6.34658e-05
6.28828e-05
6.24935e-05
6.23666e-05
6.50343e-05
6.51499e-05
6.55501e-05
6.61395e-05
6.68998e-05
6.77912e-05
6.87598e-05
6.97815e-05
7.08263e-05
7.18884e-05
7.29612e-05
7.40472e-05
7.51413e-05
7.62365e-05
7.73287e-05
7.84095e-05
7.94696e-05
8.05032e-05
8.15067e-05
8.24771e-05
8.34129e-05
8.43137e-05
8.51769e-05
8.60009e-05
8.67853e-05
8.75286e-05
8.82313e-05
8.88904e-05
8.95063e-05
9.00794e-05
9.06102e-05
9.10997e-05
9.15494e-05
9.19608e-05
9.23357e-05
9.26758e-05
9.29831e-05
9.32593e-05
9.35063e-05
9.37257e-05
9.3919e-05
9.40879e-05
9.42338e-05
9.43578e-05
9.44612e-05
9.45447e-05
9.46092e-05
9.46551e-05
9.46829e-05
9.4693e-05
9.46851e-05
9.46593e-05
9.46153e-05
9.45527e-05
9.44712e-05
9.43698e-05
9.42477e-05
9.4104e-05
9.39373e-05
9.37463e-05
9.35297e-05
9.32856e-05
9.30127e-05
9.27087e-05
9.2372e-05
9.2001e-05
9.15938e-05
9.11486e-05
9.06637e-05
9.01375e-05
8.95689e-05
8.89569e-05
8.83005e-05
8.76006e-05
8.68606e-05
8.60811e-05
8.52614e-05
8.44028e-05
8.35052e-05
8.25725e-05
8.16041e-05
8.06004e-05
7.95649e-05
7.85023e-05
7.74194e-05
7.63251e-05
7.52277e-05
7.41333e-05
7.30461e-05
7.19728e-05
7.09086e-05
6.98567e-05
6.88392e-05
6.78686e-05
6.69801e-05
6.62086e-05
6.55912e-05
6.51812e-05
6.50508e-05
6.78289e-05
6.79596e-05
6.8381e-05
6.90002e-05
6.97964e-05
7.07359e-05
7.17583e-05
7.28368e-05
7.39392e-05
7.50584e-05
7.6188e-05
7.73323e-05
7.84862e-05
7.9642e-05
8.07954e-05
8.19368e-05
8.30558e-05
8.41459e-05
8.52035e-05
8.62251e-05
8.72103e-05
8.81587e-05
8.90681e-05
8.99366e-05
9.07641e-05
9.15489e-05
9.22919e-05
9.29891e-05
9.36405e-05
9.42468e-05
9.48083e-05
9.53262e-05
9.5802e-05
9.62374e-05
9.66341e-05
9.69941e-05
9.73193e-05
9.76117e-05
9.78732e-05
9.81054e-05
9.831e-05
9.84889e-05
9.86433e-05
9.87747e-05
9.88842e-05
9.89725e-05
9.90408e-05
9.90894e-05
9.91189e-05
9.91294e-05
9.91211e-05
9.90938e-05
9.90473e-05
9.8981e-05
9.88947e-05
9.87873e-05
9.86581e-05
9.85059e-05
9.83294e-05
9.81272e-05
9.78979e-05
9.76396e-05
9.73507e-05
9.70289e-05
9.66726e-05
9.628e-05
9.58491e-05
9.5378e-05
9.48649e-05
9.43082e-05
9.37067e-05
9.30594e-05
9.23651e-05
9.16251e-05
9.08438e-05
9.00213e-05
8.91572e-05
8.82525e-05
8.73073e-05
8.63254e-05
8.53057e-05
8.42482e-05
8.31561e-05
8.20347e-05
8.0891e-05
7.97351e-05
7.85766e-05
7.74218e-05
7.62752e-05
7.51438e-05
7.40208e-05
7.29095e-05
7.18327e-05
7.08041e-05
6.98618e-05
6.90449e-05
6.83949e-05
6.79655e-05
6.78327e-05
7.07245e-05
7.08691e-05
7.13083e-05
7.19556e-05
7.27876e-05
7.37751e-05
7.48506e-05
7.59853e-05
7.71449e-05
7.83204e-05
7.95057e-05
8.07069e-05
8.19191e-05
8.3134e-05
8.43471e-05
8.55476e-05
8.67237e-05
8.78685e-05
8.8978e-05
9.00488e-05
9.1081e-05
9.20749e-05
9.30284e-05
9.39395e-05
9.48083e-05
9.56331e-05
9.6415e-05
9.71491e-05
9.78349e-05
9.84732e-05
9.90644e-05
9.96098e-05
0.000100111
0.000100569
0.000100987
0.000101366
0.000101709
0.000102017
0.000102292
0.000102537
0.000102753
0.000102941
0.000103104
0.000103242
0.000103358
0.000103451
0.000103523
0.000103574
0.000103605
0.000103616
0.000103607
0.000103578
0.000103529
0.00010346
0.000103369
0.000103255
0.000103119
0.000102959
0.000102773
0.00010256
0.000102318
0.000102046
0.000101742
0.000101403
0.000101028
0.000100614
0.00010016
9.96643e-05
9.9124e-05
9.85378e-05
9.79044e-05
9.72229e-05
9.6492e-05
9.57133e-05
9.48921e-05
9.40284e-05
9.31217e-05
9.21731e-05
9.11824e-05
9.01537e-05
8.90848e-05
8.79755e-05
8.68288e-05
8.56505e-05
8.44477e-05
8.32319e-05
8.20139e-05
8.08003e-05
7.9596e-05
7.84081e-05
7.72278e-05
7.60581e-05
7.49227e-05
7.38364e-05
7.28405e-05
7.19786e-05
7.12967e-05
7.08488e-05
7.07144e-05
7.37224e-05
7.38811e-05
7.43376e-05
7.5013e-05
7.58812e-05
7.69175e-05
7.80469e-05
7.9238e-05
8.04543e-05
8.16851e-05
8.2925e-05
8.41821e-05
8.54517e-05
8.6725e-05
8.79971e-05
8.9256e-05
9.04883e-05
9.16868e-05
9.28471e-05
9.39657e-05
9.50436e-05
9.60817e-05
9.70782e-05
9.80309e-05
9.894e-05
9.9804e-05
0.000100624
0.000101395
0.000102114
0.000102784
0.000103405
0.000103977
0.000104503
0.000104984
0.000105423
0.000105821
0.00010618
0.000106504
0.000106793
0.00010705
0.000107276
0.000107474
0.000107645
0.00010779
0.000107911
0.000108009
0.000108085
0.000108138
0.000108171
0.000108183
0.000108173
0.000108143
0.000108092
0.000108019
0.000107923
0.000107804
0.000107661
0.000107493
0.000107298
0.000107074
0.00010682
0.000106535
0.000106215
0.000105859
0.000105465
0.000105031
0.000104555
0.000104034
0.000103467
0.000102852
0.000102187
0.000101472
0.000100705
9.98883e-05
9.90279e-05
9.8124e-05
9.71758e-05
9.61843e-05
9.51493e-05
9.4075e-05
9.29583e-05
9.17985e-05
9.05982e-05
8.93638e-05
8.81024e-05
8.68272e-05
8.55503e-05
8.42786e-05
8.30171e-05
8.17735e-05
8.05363e-05
7.93082e-05
7.81139e-05
7.69694e-05
7.59192e-05
7.50119e-05
7.42985e-05
7.38327e-05
7.36977e-05
7.68218e-05
7.699e-05
7.74594e-05
7.81621e-05
7.90696e-05
8.01575e-05
8.13428e-05
8.25921e-05
8.3867e-05
8.51544e-05
8.64495e-05
8.77632e-05
8.90906e-05
9.04227e-05
9.17542e-05
9.30718e-05
9.43605e-05
9.56125e-05
9.68233e-05
9.7989e-05
9.91119e-05
0.000100194
0.000101232
0.000102226
0.000103175
0.000104078
0.000104936
0.000105743
0.000106497
0.000107198
0.000107848
0.000108447
0.000108998
0.000109502
0.000109961
0.000110378
0.000110754
0.000111093
0.000111396
0.000111665
0.000111902
0.00011211
0.000112289
0.000112441
0.000112568
0.00011267
0.000112749
0.000112806
0.00011284
0.000112852
0.000112842
0.000112811
0.000112757
0.00011268
0.00011258
0.000112456
0.000112306
0.00011213
0.000111925
0.000111691
0.000111425
0.000111126
0.000110791
0.000110418
0.000110006
0.000109551
0.000109052
0.000108507
0.000107913
0.000107269
0.000106573
0.000105824
0.000105021
0.000104166
0.000103267
0.000102323
0.000101334
0.0001003
9.92219e-05
9.81027e-05
9.69388e-05
9.57289e-05
9.44753e-05
9.31848e-05
9.18648e-05
9.053e-05
8.91941e-05
8.7864e-05
8.65454e-05
8.5246e-05
8.39516e-05
8.26647e-05
8.14106e-05
8.02067e-05
7.91009e-05
7.81474e-05
7.74022e-05
7.6919e-05
7.67841e-05
8.00239e-05
8.02004e-05
8.06851e-05
8.14169e-05
8.23651e-05
8.35064e-05
8.47497e-05
8.60586e-05
8.73927e-05
8.8737e-05
9.00876e-05
9.14579e-05
9.28437e-05
9.42351e-05
9.56266e-05
9.70035e-05
9.83491e-05
9.96549e-05
0.000100916
0.000102129
0.000103296
0.000104422
0.000105503
0.000106537
0.000107526
0.000108468
0.000109365
0.000110208
0.000110996
0.000111729
0.000112408
0.000113035
0.00011361
0.000114137
0.000114617
0.000115053
0.000115447
0.000115801
0.000116118
0.000116399
0.000116647
0.000116864
0.000117051
0.00011721
0.000117343
0.00011745
0.000117533
0.000117592
0.000117627
0.00011764
0.00011763
0.000117597
0.00011754
0.00011746
0.000117356
0.000117226
0.000117069
0.000116885
0.000116671
0.000116426
0.000116148
0.000115835
0.000115485
0.000115095
0.000114664
0.000114189
0.000113667
0.000113097
0.000112476
0.000111803
0.000111076
0.000110293
0.000109454
0.000108561
0.000107622
0.000106639
0.000105608
0.000104533
0.000103411
0.000102247
0.000101036
9.97757e-05
9.84686e-05
9.71216e-05
9.57423e-05
9.43471e-05
9.29514e-05
9.15624e-05
9.01861e-05
8.88304e-05
8.74781e-05
8.61311e-05
8.48157e-05
8.35508e-05
8.23877e-05
8.13869e-05
8.06097e-05
8.01092e-05
7.99753e-05
8.33272e-05
8.35045e-05
8.40004e-05
8.47616e-05
8.57559e-05
8.69555e-05
8.82605e-05
8.96324e-05
9.10287e-05
9.24323e-05
9.384e-05
9.52686e-05
9.67141e-05
9.81661e-05
9.9619e-05
0.000101057
0.00010246
0.00010382
0.000105132
0.000106392
0.000107605
0.000108773
0.000109897
0.000110973
0.000112002
0.000112984
0.000113919
0.0001148
0.000115622
0.000116387
0.000117096
0.00011775
0.000118351
0.000118901
0.000119403
0.000119858
0.000120269
0.000120639
0.000120969
0.000121263
0.000121522
0.000121749
0.000121944
0.00012211
0.000122249
0.000122361
0.000122447
0.000122509
0.000122546
0.000122559
0.000122548
0.000122514
0.000122455
0.000122371
0.000122262
0.000122126
0.000121963
0.000121771
0.000121547
0.000121291
0.000121001
0.000120674
0.000120309
0.000119902
0.000119452
0.000118955
0.000118411
0.000117816
0.000117167
0.000116464
0.000115705
0.000114888
0.000114012
0.00011308
0.000112102
0.000111078
0.000110007
0.000108889
0.000107723
0.000106514
0.000105256
0.000103946
0.000102584
0.00010118
9.97404e-05
9.82837e-05
9.68272e-05
9.53782e-05
9.39433e-05
9.25304e-05
9.11191e-05
8.97105e-05
8.8332e-05
8.70039e-05
8.57814e-05
8.47318e-05
8.39221e-05
8.34044e-05
8.32723e-05
8.67328e-05
8.69082e-05
8.74203e-05
8.82143e-05
8.92567e-05
9.05172e-05
9.18867e-05
9.33237e-05
9.47837e-05
9.62477e-05
9.77132e-05
9.92009e-05
0.000100707
0.000102221
0.000103737
0.000105236
0.000106698
0.000108114
0.000109478
0.000110785
0.000112043
0.000113255
0.000114421
0.000115539
0.000116609
0.000117631
0.000118606
0.000119525
0.000120382
0.00012118
0.00012192
0.000122602
0.000123229
0.000123803
0.000124326
0.0001248
0.000125229
0.000125615
0.000125959
0.000126266
0.000126536
0.000126773
0.000126976
0.00012715
0.000127294
0.000127411
0.000127501
0.000127565
0.000127604
0.000127618
0.000127607
0.000127571
0.000127509
0.000127422
0.000127308
0.000127167
0.000126996
0.000126795
0.000126563
0.000126296
0.000125993
0.000125652
0.000125271
0.000124846
0.000124376
0.000123859
0.000123291
0.00012267
0.000121994
0.000121261
0.000120469
0.000119616
0.000118703
0.000117731
0.000116714
0.000115649
0.000114536
0.000113375
0.000112165
0.000110912
0.000109606
0.000108244
0.000106828
0.000105365
0.000103864
0.000102344
0.000100825
9.93148e-05
9.782e-05
9.63488e-05
9.48771e-05
9.34053e-05
9.19614e-05
9.05677e-05
8.92834e-05
8.81833e-05
8.73405e-05
8.68057e-05
8.66763e-05
9.02397e-05
9.04052e-05
9.09314e-05
9.17599e-05
9.28561e-05
9.41828e-05
9.56214e-05
9.71274e-05
9.86544e-05
0.000100181
0.000101707
0.000103255
0.000104824
0.000106402
0.000107982
0.000109545
0.000111068
0.00011254
0.000113956
0.000115312
0.000116615
0.000117872
0.000119081
0.00012024
0.000121352
0.000122415
0.000123431
0.000124388
0.000125282
0.000126114
0.000126884
0.000127595
0.000128248
0.000128846
0.000129391
0.000129886
0.000130333
0.000130735
0.000131094
0.000131414
0.000131696
0.000131942
0.000132155
0.000132335
0.000132486
0.000132608
0.000132701
0.000132768
0.000132809
0.000132823
0.000132811
0.000132774
0.00013271
0.000132619
0.0001325
0.000132353
0.000132175
0.000131966
0.000131723
0.000131445
0.000131129
0.000130774
0.000130377
0.000129934
0.000129445
0.000128905
0.000128313
0.000127666
0.000126961
0.000126197
0.000125372
0.000124483
0.000123531
0.00012252
0.000121461
0.000120355
0.000119199
0.000117995
0.000116742
0.000115442
0.000114088
0.000112675
0.000111203
0.00010968
0.000108115
0.000106531
0.000104948
0.000103375
0.000101819
0.000100288
9.87544e-05
9.72172e-05
9.57055e-05
9.42436e-05
9.28948e-05
9.17425e-05
9.08657e-05
9.03141e-05
9.01882e-05
9.38485e-05
9.40001e-05
9.45465e-05
9.54134e-05
9.6566e-05
9.79619e-05
9.94727e-05
0.00010105
0.000102647
0.000104238
0.000105824
0.000107435
0.000109068
0.000110712
0.000112358
0.000113987
0.000115571
0.000117101
0.00011857
0.000119975
0.000121324
0.000122626
0.000123879
0.000125081
0.000126235
0.000127339
0.000128397
0.000129394
0.000130325
0.000131191
0.000131994
0.000132734
0.000133414
0.000134037
0.000134605
0.00013512
0.000135586
0.000136004
0.000136379
0.000136712
0.000137005
0.000137261
0.000137483
0.000137671
0.000137828
0.000137955
0.000138052
0.000138122
0.000138164
0.000138179
0.000138167
0.000138128
0.000138061
0.000137967
0.000137843
0.000137689
0.000137504
0.000137286
0.000137034
0.000136744
0.000136415
0.000136045
0.000135631
0.00013517
0.00013466
0.000134098
0.000133482
0.000132808
0.000132074
0.000131278
0.000130418
0.000129493
0.000128502
0.000127449
0.000126348
0.0001252
0.000124001
0.000122754
0.000121455
0.00012011
0.000118707
0.000117241
0.000115711
0.000114127
0.000112497
0.000110847
0.000109198
0.000107561
0.000105942
0.00010435
0.000102752
0.000101147
9.95654e-05
9.80324e-05
9.66162e-05
9.54096e-05
9.44981e-05
9.39296e-05
9.38084e-05
9.75635e-05
9.76974e-05
9.82635e-05
9.91701e-05
0.000100382
0.000101851
0.000103438
0.000105091
0.000106759
0.000108417
0.000110066
0.000111742
0.000113441
0.000115151
0.000116866
0.000118562
0.00012021
0.000121799
0.000123322
0.000124777
0.000126173
0.00012752
0.000128817
0.000130063
0.000131259
0.000132407
0.000133507
0.000134545
0.000135514
0.000136416
0.000137251
0.000138021
0.000138729
0.000139378
0.000139969
0.000140505
0.00014099
0.000141425
0.000141815
0.000142162
0.000142467
0.000142734
0.000142964
0.00014316
0.000143324
0.000143455
0.000143557
0.000143629
0.000143673
0.000143689
0.000143676
0.000143636
0.000143566
0.000143468
0.000143339
0.000143179
0.000142987
0.00014276
0.000142497
0.000142195
0.000141853
0.000141468
0.000141037
0.000140557
0.000140027
0.000139442
0.0001388
0.000138098
0.000137334
0.000136506
0.000135611
0.000134648
0.000133616
0.000132521
0.000131377
0.000130186
0.000128944
0.000127652
0.000126308
0.000124916
0.000123464
0.000121944
0.000120356
0.000118709
0.000117012
0.000115293
0.000113577
0.000111873
0.00011019
0.000108535
0.000106872
0.000105197
0.000103542
0.000101935
0.000100448
9.91852e-05
9.82381e-05
9.7653e-05
9.75374e-05
0.000101386
0.000101501
0.000102088
0.000103036
0.00010431
0.000105855
0.000107521
0.000109252
0.000110995
0.000112721
0.000114435
0.000116176
0.000117943
0.000119723
0.000121508
0.000123273
0.000124987
0.000126636
0.000128215
0.000129719
0.000131162
0.000132555
0.000133897
0.000135187
0.000136428
0.000137619
0.000138763
0.000139843
0.000140851
0.000141789
0.000142657
0.000143459
0.000144196
0.00014487
0.000145485
0.000146043
0.000146547
0.000147
0.000147406
0.000147766
0.000148084
0.000148361
0.000148601
0.000148805
0.000148975
0.000149112
0.000149217
0.000149293
0.000149338
0.000149354
0.000149341
0.000149299
0.000149227
0.000149125
0.000148991
0.000148825
0.000148624
0.000148388
0.000148115
0.000147801
0.000147445
0.000147045
0.000146596
0.000146097
0.000145545
0.000144937
0.000144269
0.000143539
0.000142744
0.000141883
0.000140952
0.00013995
0.000138876
0.000137737
0.00013655
0.000135315
0.000134029
0.000132692
0.000131302
0.000129862
0.00012836
0.000126786
0.000125138
0.000123426
0.00012166
0.00011987
0.000118085
0.000116313
0.000114564
0.000112845
0.000111114
0.000109367
0.000107635
0.00010595
0.00010439
0.000103069
0.000102085
0.000101483
0.000101375
0.000105318
0.000105415
0.000106025
0.000107015
0.000108351
0.000109975
0.000111723
0.000113534
0.000115353
0.000117151
0.00011893
0.000120739
0.000122575
0.000124426
0.000126284
0.00012812
0.000129901
0.000131612
0.000133247
0.000134802
0.000136293
0.000137732
0.00013912
0.000140455
0.00014174
0.000142976
0.000144164
0.000145288
0.000146336
0.000147311
0.000148214
0.000149048
0.000149814
0.000150515
0.000151154
0.000151734
0.000152258
0.000152729
0.000153151
0.000153525
0.000153856
0.000154144
0.000154394
0.000154605
0.000154782
0.000154924
0.000155034
0.000155112
0.00015516
0.000155177
0.000155163
0.000155119
0.000155044
0.000154938
0.000154799
0.000154626
0.000154418
0.000154172
0.000153888
0.000153562
0.000153192
0.000152776
0.00015231
0.000151791
0.000151217
0.000150584
0.00014989
0.000149131
0.000148305
0.000147409
0.000146441
0.000145399
0.000144283
0.000143099
0.000141867
0.000140588
0.000139256
0.000137873
0.000136437
0.00013495
0.000133397
0.000131767
0.000130058
0.00012828
0.000126443
0.00012458
0.000122723
0.000120881
0.000119064
0.000117279
0.000115479
0.000113656
0.000111844
0.000110079
0.000108442
0.00010706
0.000106039
0.000105421
0.000105321
0.000109361
0.000109441
0.000110071
0.000111102
0.000112502
0.000114207
0.000116041
0.000117936
0.000119835
0.000121704
0.000123551
0.000125429
0.000127336
0.000129261
0.000131193
0.000133104
0.000134953
0.000136727
0.000138419
0.000140026
0.000141566
0.000143052
0.000144486
0.000145866
0.000147197
0.000148478
0.000149712
0.00015088
0.000151969
0.000152983
0.000153921
0.000154787
0.000155583
0.000156312
0.000156976
0.000157579
0.000158123
0.000158613
0.000159051
0.00015944
0.000159783
0.000160083
0.000160342
0.000160562
0.000160745
0.000160893
0.000161007
0.000161089
0.000161138
0.000161155
0.000161141
0.000161095
0.000161018
0.000160907
0.000160763
0.000160583
0.000160367
0.000160112
0.000159817
0.000159478
0.000159094
0.000158661
0.000158177
0.000157638
0.000157042
0.000156384
0.000155663
0.000154874
0.000154015
0.000153084
0.000152078
0.000150996
0.000149835
0.000148605
0.000147329
0.000146003
0.000144626
0.000143197
0.000141713
0.000140178
0.000138574
0.000136887
0.000135115
0.000133269
0.000131359
0.000129421
0.000127491
0.000125577
0.00012369
0.000121837
0.000119965
0.000118064
0.00011617
0.00011432
0.000112603
0.000111158
0.000110099
0.000109465
0.000109374
0.000113515
0.000113581
0.000114231
0.000115304
0.000116768
0.000118556
0.000120477
0.000122459
0.000124439
0.000126383
0.000128298
0.000130247
0.000132227
0.000134227
0.000136236
0.000138222
0.000140142
0.000141981
0.000143731
0.000145391
0.000146979
0.000148512
0.000149993
0.00015142
0.000152796
0.000154124
0.000155405
0.000156618
0.00015775
0.000158803
0.000159778
0.000160677
0.000161504
0.00016226
0.00016295
0.000163576
0.000164142
0.00016465
0.000165105
0.000165509
0.000165865
0.000166176
0.000166445
0.000166674
0.000166864
0.000167018
0.000167136
0.00016722
0.000167271
0.000167289
0.000167275
0.000167227
0.000167147
0.000167032
0.000166882
0.000166696
0.000166471
0.000166207
0.0001659
0.000165548
0.000165149
0.0001647
0.000164197
0.000163638
0.000163018
0.000162335
0.000161586
0.000160767
0.000159875
0.000158908
0.000157863
0.000156738
0.000155533
0.000154256
0.000152933
0.000151561
0.000150138
0.000148662
0.00014713
0.000145546
0.00014389
0.000142146
0.00014031
0.000138394
0.000136409
0.000134394
0.000132388
0.0001304
0.000128441
0.000126519
0.000124573
0.000122591
0.000120611
0.000118673
0.000116871
0.000115361
0.000114262
0.000113613
0.000113533
0.000117779
0.000117832
0.000118497
0.00011961
0.000121139
0.000123014
0.000125027
0.000127098
0.000129163
0.000131183
0.000133169
0.00013519
0.000137246
0.000139323
0.000141411
0.000143475
0.000145467
0.000147372
0.000149182
0.000150894
0.000152531
0.000154113
0.000155641
0.000157114
0.000158537
0.000159912
0.000161242
0.000162502
0.000163677
0.00016477
0.000165782
0.000166715
0.000167573
0.000168359
0.000169075
0.000169724
0.000170311
0.000170839
0.000171311
0.00017173
0.0001721
0.000172423
0.000172702
0.000172939
0.000173136
0.000173296
0.000173418
0.000173506
0.000173559
0.000173577
0.000173562
0.000173513
0.000173429
0.00017331
0.000173155
0.000172962
0.000172729
0.000172454
0.000172136
0.000171771
0.000171357
0.000170891
0.000170369
0.000169789
0.000169146
0.000168437
0.000167659
0.000166809
0.000165883
0.000164878
0.000163794
0.000162626
0.000161375
0.00016005
0.000158679
0.00015726
0.00015579