/*--------------------------------*- C++ -*----------------------------------*\
| =========                 |                                                 |
| \\      /  F ield         | OpenFOAM: The Open Source CFD Toolbox           |
|  \\    /   O peration     | Version:  2.3.x                                 |
|   \\  /    A nd           | Web:      www.OpenFOAM.org                      |
|    \\/     M anipulation  |                                                 |
\*---------------------------------------------------------------------------*/
FoamFile
{
    version     2.0;
    format      ascii;
    class       volScalarField;
    location    "10000";
    object      k;
}
// * * * * * * * * * * * * * * * * * * * * * * * * * * * * * * * * * * * * * //

dimensions      [0 2 -2 0 0 0 0];

internalField   nonuniform List<scalar> 
14751
(
3.90064e-09
4.0988e-09
4.31305e-09
4.53602e-09
4.77137e-09
5.01842e-09
5.27281e-09
5.53837e-09
5.81323e-09
6.10009e-09
6.39613e-09
6.70458e-09
7.01829e-09
7.33846e-09
7.66247e-09
7.9887e-09
8.31831e-09
8.64782e-09
8.97949e-09
9.31223e-09
9.64768e-09
9.98522e-09
1.03268e-08
1.06693e-08
1.10162e-08
1.13663e-08
1.17204e-08
1.20779e-08
1.24395e-08
1.28052e-08
1.31746e-08
1.3548e-08
1.3925e-08
1.43057e-08
1.46899e-08
1.5077e-08
1.54687e-08
1.58637e-08
1.62616e-08
1.66616e-08
1.70649e-08
1.74697e-08
1.78727e-08
1.82748e-08
1.86736e-08
1.90678e-08
1.94565e-08
1.9839e-08
2.02144e-08
2.05801e-08
2.09345e-08
2.12764e-08
2.16031e-08
2.19128e-08
2.22034e-08
2.24725e-08
2.2717e-08
2.29343e-08
2.31211e-08
2.32744e-08
2.33802e-08
2.34199e-08
2.33717e-08
2.32107e-08
2.29073e-08
2.24231e-08
2.1718e-08
2.07574e-08
1.95252e-08
1.80258e-08
1.63019e-08
1.44335e-08
1.25271e-08
1.06926e-08
9.01824e-09
7.55986e-09
6.34011e-09
5.35315e-09
4.58252e-09
3.99519e-09
3.56116e-09
3.24506e-09
3.01846e-09
2.8567e-09
2.74322e-09
2.66831e-09
2.62533e-09
2.60982e-09
2.61851e-09
2.64892e-09
2.69967e-09
2.76901e-09
2.85615e-09
2.96088e-09
3.08102e-09
3.218e-09
3.36795e-09
3.53052e-09
3.70539e-09
7.28273e-08
7.64415e-08
8.03303e-08
8.4356e-08
8.8586e-08
9.30076e-08
9.75413e-08
1.02235e-07
1.07062e-07
1.12087e-07
1.1726e-07
1.22638e-07
1.28104e-07
1.33682e-07
1.39326e-07
1.45012e-07
1.50756e-07
1.56502e-07
1.62286e-07
1.68093e-07
1.73948e-07
1.79844e-07
1.85809e-07
1.91796e-07
1.97859e-07
2.03982e-07
2.10176e-07
2.16434e-07
2.22764e-07
2.29168e-07
2.35641e-07
2.42185e-07
2.48796e-07
2.55475e-07
2.62217e-07
2.69016e-07
2.75898e-07
2.82842e-07
2.8984e-07
2.96885e-07
3.03989e-07
3.11122e-07
3.18228e-07
3.25317e-07
3.32354e-07
3.39319e-07
3.46193e-07
3.52966e-07
3.59619e-07
3.66113e-07
3.72419e-07
3.78506e-07
3.84336e-07
3.8988e-07
3.95098e-07
3.99948e-07
4.04378e-07
4.08337e-07
4.11766e-07
4.14606e-07
4.16595e-07
4.174e-07
4.16648e-07
4.13901e-07
4.08628e-07
4.0015e-07
3.87766e-07
3.70873e-07
3.4918e-07
3.22759e-07
2.9235e-07
2.59339e-07
2.25588e-07
1.93034e-07
1.63265e-07
1.37308e-07
1.15589e-07
9.8006e-08
8.42418e-08
7.36948e-08
6.58677e-08
6.01454e-08
5.60341e-08
5.30994e-08
5.10461e-08
4.97003e-08
4.89423e-08
4.86911e-08
4.88871e-08
4.94851e-08
5.04599e-08
5.17794e-08
5.34285e-08
5.54015e-08
5.7656e-08
6.02169e-08
6.30093e-08
6.60228e-08
6.92462e-08
2.91068e-07
3.05195e-07
3.20624e-07
3.36915e-07
3.54321e-07
3.72743e-07
3.91802e-07
4.11703e-07
4.32287e-07
4.53517e-07
4.75433e-07
4.98307e-07
5.21709e-07
5.45756e-07
5.70231e-07
5.95051e-07
6.2024e-07
6.45578e-07
6.71179e-07
6.9697e-07
7.23023e-07
7.49294e-07
7.75866e-07
8.02556e-07
8.29547e-07
8.5677e-07
8.8425e-07
9.11957e-07
9.39911e-07
9.68107e-07
9.96523e-07
1.02515e-06
1.05399e-06
1.08301e-06
1.11221e-06
1.14156e-06
1.17114e-06
1.20089e-06
1.23076e-06
1.26073e-06
1.29081e-06
1.32091e-06
1.35083e-06
1.38057e-06
1.41005e-06
1.43915e-06
1.46781e-06
1.49596e-06
1.52348e-06
1.55029e-06
1.57628e-06
1.60132e-06
1.62527e-06
1.648e-06
1.66935e-06
1.68916e-06
1.70719e-06
1.72324e-06
1.73704e-06
1.74836e-06
1.75596e-06
1.75863e-06
1.7549e-06
1.74299e-06
1.72075e-06
1.6855e-06
1.63443e-06
1.56511e-06
1.47618e-06
1.36777e-06
1.24257e-06
1.10597e-06
9.65412e-07
8.28934e-07
7.03414e-07
5.93521e-07
5.013e-07
4.26416e-07
3.67456e-07
3.21819e-07
2.87348e-07
2.61784e-07
2.43103e-07
2.29484e-07
2.19661e-07
2.12871e-07
2.08578e-07
2.06418e-07
2.06115e-07
2.07456e-07
2.10313e-07
2.14527e-07
2.20035e-07
2.26813e-07
2.34698e-07
2.43817e-07
2.53905e-07
2.65017e-07
2.77203e-07
7.69799e-07
8.05158e-07
8.44435e-07
8.86724e-07
9.32607e-07
9.81757e-07
1.03299e-06
1.08688e-06
1.14289e-06
1.20085e-06
1.26072e-06
1.32227e-06
1.38549e-06
1.45086e-06
1.51766e-06
1.58573e-06
1.65498e-06
1.72484e-06
1.79548e-06
1.86665e-06
1.9384e-06
2.01057e-06
2.08323e-06
2.15593e-06
2.229e-06
2.30222e-06
2.37559e-06
2.449e-06
2.52244e-06
2.59586e-06
2.66919e-06
2.74239e-06
2.81541e-06
2.88821e-06
2.96075e-06
3.03299e-06
3.10506e-06
3.17682e-06
3.24822e-06
3.31922e-06
3.38979e-06
3.45978e-06
3.52883e-06
3.59686e-06
3.66363e-06
3.72915e-06
3.79331e-06
3.856e-06
3.91704e-06
3.97629e-06
4.03355e-06
4.08863e-06
4.14123e-06
4.19114e-06
4.23808e-06
4.2817e-06
4.32156e-06
4.35722e-06
4.38808e-06
4.41343e-06
4.43074e-06
4.43785e-06
4.43182e-06
4.40899e-06
4.36479e-06
4.2936e-06
4.18904e-06
4.04485e-06
3.85603e-06
3.61986e-06
3.33852e-06
3.02039e-06
2.68029e-06
2.33735e-06
2.01103e-06
1.71722e-06
1.46516e-06
1.25671e-06
1.08956e-06
9.57703e-07
8.55564e-07
7.77249e-07
7.18762e-07
6.75061e-07
6.42473e-07
6.18721e-07
6.02192e-07
5.91758e-07
5.86557e-07
5.85905e-07
5.89372e-07
5.96443e-07
6.06918e-07
6.20738e-07
6.37469e-07
6.57541e-07
6.8031e-07
7.0616e-07
7.35447e-07
1.61922e-06
1.68558e-06
1.76041e-06
1.84216e-06
1.93176e-06
2.02829e-06
2.12888e-06
2.23453e-06
2.34391e-06
2.45639e-06
2.57164e-06
2.68917e-06
2.80841e-06
2.92882e-06
3.05048e-06
3.17335e-06
3.29703e-06
3.42043e-06
3.54357e-06
3.66591e-06
3.78735e-06
3.90756e-06
4.02654e-06
4.14366e-06
4.25929e-06
4.37319e-06
4.48534e-06
4.59564e-06
4.70414e-06
4.81084e-06
4.91571e-06
5.0188e-06
5.12012e-06
5.21975e-06
5.31771e-06
5.41407e-06
5.50901e-06
5.6025e-06
5.69458e-06
5.78531e-06
5.87452e-06
5.9621e-06
6.04802e-06
6.13229e-06
6.21476e-06
6.29546e-06
6.37436e-06
6.45141e-06
6.52646e-06
6.59943e-06
6.67016e-06
6.73849e-06
6.80414e-06
6.86691e-06
6.9265e-06
6.98257e-06
7.03461e-06
7.08208e-06
7.12421e-06
7.15991e-06
7.18685e-06
7.20282e-06
7.20479e-06
7.18888e-06
7.1502e-06
7.08268e-06
6.97907e-06
6.83143e-06
6.63183e-06
6.37292e-06
6.05019e-06
5.66394e-06
5.22169e-06
4.73943e-06
4.24077e-06
3.75332e-06
3.30179e-06
2.9021e-06
2.56188e-06
2.27945e-06
2.05039e-06
1.86654e-06
1.72155e-06
1.60987e-06
1.52361e-06
1.45768e-06
1.40838e-06
1.37305e-06
1.34961e-06
1.33638e-06
1.33224e-06
1.33589e-06
1.34682e-06
1.36492e-06
1.38919e-06
1.42072e-06
1.45815e-06
1.50263e-06
1.55519e-06
2.82056e-06
2.9116e-06
3.0155e-06
3.12965e-06
3.25477e-06
3.38889e-06
3.52695e-06
3.67e-06
3.81571e-06
3.96288e-06
4.11085e-06
4.25886e-06
4.4061e-06
4.55211e-06
4.69669e-06
4.83918e-06
4.97951e-06
5.11766e-06
5.25362e-06
5.38686e-06
5.51737e-06
5.64498e-06
5.76976e-06
5.89137e-06
6.01022e-06
6.12627e-06
6.23964e-06
6.35038e-06
6.45864e-06
6.56455e-06
6.6682e-06
6.76971e-06
6.8692e-06
6.96681e-06
7.06264e-06
7.1568e-06
7.24948e-06
7.34072e-06
7.43058e-06
7.519e-06
7.60599e-06
7.69162e-06
7.77588e-06
7.85879e-06
7.94025e-06
8.02028e-06
8.09886e-06
8.17596e-06
8.25145e-06
8.32527e-06
8.39727e-06
8.46729e-06
8.5351e-06
8.60047e-06
8.66313e-06
8.72272e-06
8.77873e-06
8.8306e-06
8.87744e-06
8.91807e-06
8.9508e-06
8.97362e-06
8.98394e-06
8.97842e-06
8.95294e-06
8.90249e-06
8.82114e-06
8.70238e-06
8.5396e-06
8.32646e-06
8.05822e-06
7.73299e-06
7.35307e-06
6.92592e-06
6.46431e-06
5.9855e-06
5.50822e-06
5.04931e-06
4.62323e-06
4.23838e-06
3.90033e-06
3.60862e-06
3.36182e-06
3.15548e-06
2.98804e-06
2.85305e-06
2.74559e-06
2.66187e-06
2.59876e-06
2.55346e-06
2.5241e-06
2.50831e-06
2.50514e-06
2.51439e-06
2.53428e-06
2.56669e-06
2.60921e-06
2.66398e-06
2.73269e-06
4.08566e-06
4.17585e-06
4.28073e-06
4.39671e-06
4.524e-06
4.65997e-06
4.79855e-06
4.9407e-06
5.08388e-06
5.22684e-06
5.36898e-06
5.50973e-06
5.64849e-06
5.78502e-06
5.91926e-06
6.05088e-06
6.17996e-06
6.30616e-06
6.42966e-06
6.55071e-06
6.6693e-06
6.78532e-06
6.89888e-06
7.00977e-06
7.11832e-06
7.22455e-06
7.32858e-06
7.43049e-06
7.5304e-06
7.62843e-06
7.72468e-06
7.81926e-06
7.91227e-06
8.00382e-06
8.094e-06
8.18289e-06
8.27062e-06
8.35723e-06
8.44272e-06
8.52706e-06
8.61032e-06
8.69255e-06
8.77372e-06
8.85385e-06
8.93286e-06
9.01073e-06
9.08744e-06
9.16292e-06
9.23706e-06
9.30978e-06
9.38093e-06
9.45034e-06
9.51779e-06
9.58303e-06
9.64577e-06
9.70564e-06
9.76212e-06
9.8146e-06
9.86216e-06
9.90358e-06
9.93756e-06
9.96225e-06
9.97534e-06
9.97399e-06
9.95469e-06
9.91335e-06
9.84525e-06
9.74541e-06
9.60892e-06
9.43146e-06
9.21012e-06
8.94428e-06
8.63634e-06
8.292e-06
7.91996e-06
7.53106e-06
7.13648e-06
6.74612e-06
6.36913e-06
6.01187e-06
5.68017e-06
5.37654e-06
5.10325e-06
4.86022e-06
4.6468e-06
4.4643e-06
4.31039e-06
4.1825e-06
4.07843e-06
3.99569e-06
3.93267e-06
3.88677e-06
3.85701e-06
3.84336e-06
3.84351e-06
3.85999e-06
3.88962e-06
3.93517e-06
3.99852e-06
5.09653e-06
5.16983e-06
5.25785e-06
5.35662e-06
5.46606e-06
5.58362e-06
5.70366e-06
5.82684e-06
5.95099e-06
6.07497e-06
6.19835e-06
6.32068e-06
6.44156e-06
6.56084e-06
6.67851e-06
6.79438e-06
6.90851e-06
7.02064e-06
7.13094e-06
7.23939e-06
7.34605e-06
7.45106e-06
7.55441e-06
7.65597e-06
7.7559e-06
7.85423e-06
7.95101e-06
8.04627e-06
8.1401e-06
8.23257e-06
8.32372e-06
8.41363e-06
8.50236e-06
8.58997e-06
8.67653e-06
8.76209e-06
8.8467e-06
8.93038e-06
9.01308e-06
9.09484e-06
9.17567e-06
9.25562e-06
9.33463e-06
9.4127e-06
9.48974e-06
9.56572e-06
9.64058e-06
9.71425e-06
9.78659e-06
9.8575e-06
9.92682e-06
9.99436e-06
1.00599e-05
1.01231e-05
1.01837e-05
1.02412e-05
1.02952e-05
1.03449e-05
1.03894e-05
1.04275e-05
1.0458e-05
1.0479e-05
1.04885e-05
1.04838e-05
1.0462e-05
1.04196e-05
1.03528e-05
1.02577e-05
1.01309e-05
9.96995e-06
9.77362e-06
9.54287e-06
9.28098e-06
8.9934e-06
8.68718e-06
8.37009e-06
8.04944e-06
7.73136e-06
7.42123e-06
7.12285e-06
6.83985e-06
6.57412e-06
6.32766e-06
6.10133e-06
5.8959e-06
5.71201e-06
5.54979e-06
5.40948e-06
5.29024e-06
5.19041e-06
5.10914e-06
5.04436e-06
4.99536e-06
4.96246e-06
4.94342e-06
4.941e-06
4.95218e-06
4.98002e-06
5.02631e-06
5.7771e-06
5.83419e-06
5.9051e-06
5.98605e-06
6.07681e-06
6.17518e-06
6.27652e-06
6.38117e-06
6.48735e-06
6.5941e-06
6.70104e-06
6.80779e-06
6.91403e-06
7.01963e-06
7.12455e-06
7.22862e-06
7.33185e-06
7.43398e-06
7.53511e-06
7.63518e-06
7.73418e-06
7.83209e-06
7.92893e-06
8.02465e-06
8.11929e-06
8.21283e-06
8.30527e-06
8.39662e-06
8.4869e-06
8.57613e-06
8.66433e-06
8.75153e-06
8.83776e-06
8.92304e-06
9.0074e-06
9.09086e-06
9.17343e-06
9.25508e-06
9.33579e-06
9.41557e-06
9.49443e-06
9.57236e-06
9.64929e-06
9.7252e-06
9.79999e-06
9.8736e-06
9.94594e-06
1.00169e-05
1.00864e-05
1.01542e-05
1.02201e-05
1.0284e-05
1.03456e-05
1.04044e-05
1.04603e-05
1.05126e-05
1.05608e-05
1.06041e-05
1.06416e-05
1.0672e-05
1.06939e-05
1.07058e-05
1.07055e-05
1.06906e-05
1.06585e-05
1.06062e-05
1.05306e-05
1.04291e-05
1.02994e-05
1.01406e-05
9.95294e-06
9.73879e-06
9.50213e-06
9.24832e-06
8.98336e-06
8.71313e-06
8.44272e-06
8.1761e-06
7.91653e-06
7.66629e-06
7.42749e-06
7.2014e-06
6.98937e-06
6.79228e-06
6.61099e-06
6.44632e-06
6.29863e-06
6.16805e-06
6.0543e-06
5.95693e-06
5.87555e-06
5.80845e-06
5.75504e-06
5.71578e-06
5.68847e-06
5.67591e-06
5.67559e-06
5.69084e-06
5.72327e-06
6.19953e-06
6.2468e-06
6.30659e-06
6.37551e-06
6.45324e-06
6.53803e-06
6.62622e-06
6.71787e-06
6.81157e-06
6.90648e-06
7.00225e-06
7.09854e-06
7.19507e-06
7.29169e-06
7.38831e-06
7.48477e-06
7.581e-06
7.67678e-06
7.7721e-06
7.86687e-06
7.96105e-06
8.05456e-06
8.14739e-06
8.23941e-06
8.33066e-06
8.4211e-06
8.5107e-06
8.59943e-06
8.68726e-06
8.7742e-06
8.86023e-06
8.94535e-06
9.02956e-06
9.11285e-06
9.19521e-06
9.27662e-06
9.35708e-06
9.43655e-06
9.515e-06
9.59241e-06
9.66876e-06
9.74401e-06
9.81808e-06
9.8909e-06
9.96238e-06
1.00324e-05
1.01009e-05
1.01676e-05
1.02325e-05
1.02954e-05
1.03559e-05
1.04139e-05
1.0469e-05
1.05209e-05
1.0569e-05
1.06129e-05
1.06518e-05
1.0685e-05
1.07113e-05
1.07295e-05
1.07382e-05
1.07357e-05
1.07201e-05
1.06892e-05
1.06405e-05
1.05716e-05
1.04804e-05
1.03651e-05
1.02248e-05
1.00598e-05
9.87188e-06
9.66426e-06
9.44139e-06
9.20835e-06
8.97021e-06
8.73146e-06
8.49568e-06
8.26553e-06
8.04297e-06
7.82943e-06
7.62611e-06
7.43389e-06
7.25363e-06
7.08601e-06
6.93169e-06
6.79126e-06
6.66501e-06
6.55301e-06
6.45512e-06
6.37094e-06
6.30004e-06
6.24136e-06
6.19441e-06
6.15926e-06
6.13468e-06
6.12192e-06
6.11932e-06
6.12978e-06
6.15559e-06
6.4566e-06
6.49977e-06
6.55403e-06
6.61649e-06
6.68672e-06
6.76337e-06
6.84355e-06
6.92715e-06
7.01304e-06
7.10047e-06
7.18913e-06
7.27871e-06
7.36895e-06
7.45969e-06
7.55083e-06
7.64219e-06
7.73367e-06
7.82505e-06
7.91628e-06
8.00724e-06
8.09787e-06
8.18807e-06
8.27779e-06
8.36688e-06
8.45536e-06
8.54317e-06
8.63023e-06
8.7165e-06
8.80194e-06
8.88652e-06
8.9702e-06
9.05295e-06
9.13474e-06
9.21555e-06
9.29534e-06
9.37406e-06
9.45169e-06
9.52817e-06
9.60346e-06
9.67751e-06
9.75026e-06
9.82165e-06
9.89157e-06
9.95993e-06
1.00266e-05
1.00914e-05
1.01543e-05
1.0215e-05
1.02733e-05
1.03291e-05
1.03819e-05
1.04316e-05
1.04776e-05
1.05196e-05
1.0557e-05
1.05892e-05
1.06154e-05
1.06347e-05
1.06459e-05
1.06479e-05
1.06391e-05
1.06179e-05
1.05827e-05
1.05313e-05
1.04617e-05
1.03723e-05
1.02618e-05
1.01294e-05
9.97556e-06
9.80181e-06
9.61093e-06
9.40679e-06
9.19389e-06
8.97683e-06
8.75974e-06
8.54595e-06
8.33794e-06
8.13744e-06
7.94558e-06
7.76324e-06
7.59102e-06
7.42953e-06
7.27921e-06
7.1405e-06
7.01375e-06
6.89925e-06
6.79707e-06
6.70714e-06
6.6292e-06
6.56284e-06
6.50758e-06
6.46263e-06
6.4275e-06
6.40206e-06
6.38551e-06
6.37847e-06
6.38009e-06
6.39184e-06
6.41666e-06
6.61891e-06
6.66137e-06
6.71362e-06
6.77315e-06
6.83947e-06
6.91148e-06
6.98689e-06
7.06549e-06
7.14635e-06
7.22882e-06
7.31262e-06
7.39748e-06
7.48316e-06
7.56953e-06
7.65645e-06
7.74378e-06
7.83138e-06
7.91906e-06
8.00673e-06
8.09428e-06
8.18161e-06
8.26862e-06
8.35523e-06
8.44131e-06
8.52683e-06
8.61171e-06
8.69587e-06
8.77924e-06
8.86176e-06
8.94338e-06
9.02404e-06
9.10369e-06
9.18226e-06
9.25972e-06
9.336e-06
9.41104e-06
9.48478e-06
9.55716e-06
9.62809e-06
9.69751e-06
9.76532e-06
9.83143e-06
9.8957e-06
9.95801e-06
1.00182e-05
1.00761e-05
1.01315e-05
1.01841e-05
1.02338e-05
1.02803e-05
1.03231e-05
1.03619e-05
1.03963e-05
1.04257e-05
1.04495e-05
1.04671e-05
1.04774e-05
1.04796e-05
1.04726e-05
1.0455e-05
1.04256e-05
1.03828e-05
1.03251e-05
1.02511e-05
1.01593e-05
1.00486e-05
9.91879e-06
9.77033e-06
9.60474e-06
9.42457e-06
9.23329e-06
9.03497e-06
8.83381e-06
8.63369e-06
8.43778e-06
8.24839e-06
8.06711e-06
7.89498e-06
7.7325e-06
7.58013e-06
7.43803e-06
7.30651e-06
7.18564e-06
7.0756e-06
6.97641e-06
6.88806e-06
6.81041e-06
6.7432e-06
6.68608e-06
6.63858e-06
6.60022e-06
6.57033e-06
6.54844e-06
6.53437e-06
6.52756e-06
6.52836e-06
6.53636e-06
6.55263e-06
6.57939e-06
6.73104e-06
6.77413e-06
6.82593e-06
6.88418e-06
6.9483e-06
7.01739e-06
7.08957e-06
7.16459e-06
7.24168e-06
7.32027e-06
7.40012e-06
7.48101e-06
7.56273e-06
7.64517e-06
7.72821e-06
7.8117e-06
7.89551e-06
7.97947e-06
8.06348e-06
8.14741e-06
8.23115e-06
8.31461e-06
8.39769e-06
8.48026e-06
8.56225e-06
8.64359e-06
8.72418e-06
8.80392e-06
8.88275e-06
8.96058e-06
9.03733e-06
9.11293e-06
9.18731e-06
9.26038e-06
9.33207e-06
9.4023e-06
9.47097e-06
9.538e-06
9.60328e-06
9.66671e-06
9.72817e-06
9.78753e-06
9.84461e-06
9.89927e-06
9.9513e-06
1.00005e-05
1.00466e-05
1.00893e-05
1.01284e-05
1.01635e-05
1.01942e-05
1.022e-05
1.02404e-05
1.02549e-05
1.02628e-05
1.02633e-05
1.02555e-05
1.02385e-05
1.02111e-05
1.01723e-05
1.01208e-05
1.00555e-05
9.97533e-06
9.87929e-06
9.76693e-06
9.63807e-06
9.49317e-06
9.33385e-06
9.16257e-06
8.98252e-06
8.79736e-06
8.61092e-06
8.42675e-06
8.24784e-06
8.07638e-06
7.91377e-06
7.76086e-06
7.6181e-06
7.48551e-06
7.36316e-06
7.25088e-06
7.14865e-06
7.05627e-06
6.97363e-06
6.90051e-06
6.83668e-06
6.78184e-06
6.73564e-06
6.69765e-06
6.66742e-06
6.64449e-06
6.62832e-06
6.6185e-06
6.61489e-06
6.61708e-06
6.62539e-06
6.63964e-06
6.66078e-06
6.69048e-06
6.81814e-06
6.8619e-06
6.91352e-06
6.97087e-06
7.03328e-06
7.09997e-06
7.16937e-06
7.24121e-06
7.31485e-06
7.38979e-06
7.46584e-06
7.54282e-06
7.62056e-06
7.69897e-06
7.77796e-06
7.85737e-06
7.9371e-06
8.01698e-06
8.0969e-06
8.17674e-06
8.25638e-06
8.33572e-06
8.41465e-06
8.49305e-06
8.57082e-06
8.64788e-06
8.7241e-06
8.7994e-06
8.87365e-06
8.94678e-06
9.01868e-06
9.08926e-06
9.15841e-06
9.22604e-06
9.29205e-06
9.35632e-06
9.41874e-06
9.47921e-06
9.53758e-06
9.59372e-06
9.64749e-06
9.6987e-06
9.74717e-06
9.7927e-06
9.83506e-06
9.87398e-06
9.9092e-06
9.94039e-06
9.96721e-06
9.98926e-06
1.00061e-05
1.00173e-05
1.00222e-05
1.00202e-05
1.00108e-05
9.99296e-06
9.96604e-06
9.92911e-06
9.88125e-06
9.82156e-06
9.74919e-06
9.66339e-06
9.56367e-06
9.44984e-06
9.32223e-06
9.18173e-06
9.02978e-06
8.86835e-06
8.70052e-06
8.52965e-06
8.35909e-06
8.192e-06
8.03103e-06
7.87817e-06
7.73468e-06
7.6012e-06
7.47798e-06
7.36497e-06
7.26185e-06
7.16838e-06
7.08413e-06
7.00887e-06
6.94219e-06
6.88381e-06
6.83337e-06
6.79054e-06
6.75496e-06
6.72624e-06
6.704e-06
6.68782e-06
6.67733e-06
6.6721e-06
6.67181e-06
6.67643e-06
6.68568e-06
6.69991e-06
6.71909e-06
6.74409e-06
6.77642e-06
6.89319e-06
6.937e-06
6.98807e-06
7.04426e-06
7.10477e-06
7.16897e-06
7.23546e-06
7.304e-06
7.37403e-06
7.44514e-06
7.51716e-06
7.58996e-06
7.66343e-06
7.73746e-06
7.812e-06
7.88692e-06
7.9621e-06
8.0374e-06
8.11271e-06
8.18789e-06
8.26283e-06
8.33742e-06
8.41154e-06
8.48507e-06
8.55789e-06
8.62991e-06
8.70098e-06
8.771e-06
8.83985e-06
8.9074e-06
8.97354e-06
9.03815e-06
9.10112e-06
9.16232e-06
9.22162e-06
9.27889e-06
9.334e-06
9.38681e-06
9.43716e-06
9.48488e-06
9.52979e-06
9.57169e-06
9.61037e-06
9.64559e-06
9.67709e-06
9.70458e-06
9.72776e-06
9.74628e-06
9.75976e-06
9.7678e-06
9.76994e-06
9.76567e-06
9.75448e-06
9.73575e-06
9.70887e-06
9.67316e-06
9.62796e-06
9.57257e-06
9.50638e-06
9.42884e-06
9.33956e-06
9.23838e-06
9.12545e-06
9.00134e-06
8.86713e-06
8.7244e-06
8.57532e-06
8.42217e-06
8.26773e-06
8.11505e-06
7.96677e-06
7.8251e-06
7.69172e-06
7.56767e-06
7.45347e-06
7.34919e-06
7.25462e-06
7.16942e-06
7.09308e-06
7.02514e-06
6.96511e-06
6.91259e-06
6.86714e-06
6.8284e-06
6.79597e-06
6.76955e-06
6.74877e-06
6.73329e-06
6.72279e-06
6.71694e-06
6.71546e-06
6.71802e-06
6.72444e-06
6.73475e-06
6.74879e-06
6.767e-06
6.78941e-06
6.8169e-06
6.85087e-06
6.96237e-06
7.00553e-06
7.05543e-06
7.10991e-06
7.16809e-06
7.2294e-06
7.29262e-06
7.35751e-06
7.42358e-06
7.49048e-06
7.55811e-06
7.62634e-06
7.69511e-06
7.76434e-06
7.83398e-06
7.90392e-06
7.97407e-06
8.04427e-06
8.11441e-06
8.18437e-06
8.25402e-06
8.32325e-06
8.39193e-06
8.45993e-06
8.52713e-06
8.5934e-06
8.65861e-06
8.72262e-06
8.78529e-06
8.84648e-06
8.90607e-06
8.96391e-06
9.01986e-06
9.07379e-06
9.12555e-06
9.17497e-06
9.22192e-06
9.26622e-06
9.30769e-06
9.34614e-06
9.38138e-06
9.41318e-06
9.4413e-06
9.46548e-06
9.48547e-06
9.50094e-06
9.5116e-06
9.51707e-06
9.51701e-06
9.51099e-06
9.49861e-06
9.4794e-06
9.4529e-06
9.41862e-06
9.37607e-06
9.32476e-06
9.26426e-06
9.1942e-06
9.11434e-06
9.02458e-06
8.92507e-06
8.81621e-06
8.69877e-06
8.57388e-06
8.44311e-06
8.30838e-06
8.17189e-06
8.036e-06
7.90276e-06
7.77444e-06
7.65277e-06
7.53904e-06
7.43405e-06
7.33817e-06
7.25139e-06
7.17346e-06
7.10396e-06
7.0424e-06
6.98823e-06
6.94094e-06
6.90005e-06
6.86515e-06
6.83581e-06
6.8117e-06
6.79247e-06
6.77785e-06
6.76755e-06
6.76128e-06
6.7588e-06
6.75985e-06
6.76427e-06
6.7718e-06
6.78235e-06
6.79606e-06
6.81285e-06
6.83321e-06
6.85725e-06
6.88585e-06
6.92033e-06
7.02867e-06
7.07046e-06
7.11851e-06
7.17067e-06
7.226e-06
7.28397e-06
7.34347e-06
7.40429e-06
7.46599e-06
7.5283e-06
7.59111e-06
7.65437e-06
7.71802e-06
7.78201e-06
7.84631e-06
7.91083e-06
7.97546e-06
8.04008e-06
8.10457e-06
8.1688e-06
8.23265e-06
8.29599e-06
8.35868e-06
8.4206e-06
8.4816e-06
8.54155e-06
8.6003e-06
8.6577e-06
8.71359e-06
8.76782e-06
8.82024e-06
8.8707e-06
8.91905e-06
8.96511e-06
9.00874e-06
9.04976e-06
9.08801e-06
9.12329e-06
9.15543e-06
9.1842e-06
9.20941e-06
9.23082e-06
9.2482e-06
9.26128e-06
9.2698e-06
9.27346e-06
9.27197e-06
9.26501e-06
9.25224e-06
9.23333e-06
9.20793e-06
9.17569e-06
9.13627e-06
9.08936e-06
9.03467e-06
8.97199e-06
8.90118e-06
8.82223e-06
8.7353e-06
8.64075e-06
8.53916e-06
8.43139e-06
8.31857e-06
8.20211e-06
8.08368e-06
7.96508e-06
7.84819e-06
7.73484e-06
7.62646e-06
7.52434e-06
7.4294e-06
7.34221e-06
7.26299e-06
7.1917e-06
7.1281e-06
7.0718e-06
7.02236e-06
6.97928e-06
6.94206e-06
6.91024e-06
6.88342e-06
6.86121e-06
6.84329e-06
6.82935e-06
6.81912e-06
6.8124e-06
6.80895e-06
6.80856e-06
6.81106e-06
6.81626e-06
6.82405e-06
6.83427e-06
6.84691e-06
6.86216e-06
6.88001e-06
6.90101e-06
6.92532e-06
6.95382e-06
6.98777e-06
7.09356e-06
7.1333e-06
7.17887e-06
7.22816e-06
7.28013e-06
7.3343e-06
7.38967e-06
7.44601e-06
7.50297e-06
7.56029e-06
7.61792e-06
7.67583e-06
7.73398e-06
7.79236e-06
7.85095e-06
7.90965e-06
7.96839e-06
8.02703e-06
8.08547e-06
8.14358e-06
8.20121e-06
8.25825e-06
8.31455e-06
8.36998e-06
8.42438e-06
8.47761e-06
8.52949e-06
8.57988e-06
8.62861e-06
8.67551e-06
8.72041e-06
8.76316e-06
8.80359e-06
8.84153e-06
8.87681e-06
8.90925e-06
8.93867e-06
8.9649e-06
8.98773e-06
9.00695e-06
9.02238e-06
9.03377e-06
9.04092e-06
9.04358e-06
9.04151e-06
9.03447e-06
9.02221e-06
9.00447e-06
8.98101e-06
8.95157e-06
8.91596e-06
8.87396e-06
8.82543e-06
8.77024e-06
8.70838e-06
8.63988e-06
8.56494e-06
8.48385e-06
8.39711e-06
8.30538e-06
8.2095e-06
8.11054e-06
8.00969e-06
7.9083e-06
7.80781e-06
7.70963e-06
7.6151e-06
7.52538e-06
7.44135e-06
7.36351e-06
7.29223e-06
7.22762e-06
7.16963e-06
7.11803e-06
7.07253e-06
7.03275e-06
6.99831e-06
6.96878e-06
6.94376e-06
6.92287e-06
6.9058e-06
6.89222e-06
6.8819e-06
6.87458e-06
6.87007e-06
6.86822e-06
6.86884e-06
6.87179e-06
6.87695e-06
6.88418e-06
6.89344e-06
6.90461e-06
6.91774e-06
6.93309e-06
6.95069e-06
6.97112e-06
6.9946e-06
7.022e-06
7.05455e-06
7.15785e-06
7.19494e-06
7.23749e-06
7.2834e-06
7.33158e-06
7.38157e-06
7.43243e-06
7.48397e-06
7.53584e-06
7.58787e-06
7.64002e-06
7.69228e-06
7.74465e-06
7.79714e-06
7.84972e-06
7.90234e-06
7.9549e-06
8.00731e-06
8.05944e-06
8.11116e-06
8.16234e-06
8.21284e-06
8.26252e-06
8.31124e-06
8.35883e-06
8.40514e-06
8.45001e-06
8.49325e-06
8.5347e-06
8.57418e-06
8.61153e-06
8.64658e-06
8.67916e-06
8.70909e-06
8.73622e-06
8.76036e-06
8.78134e-06
8.79898e-06
8.8131e-06
8.82352e-06
8.83004e-06
8.83249e-06
8.83066e-06
8.82438e-06
8.81345e-06
8.7977e-06
8.77696e-06
8.75106e-06
8.71988e-06
8.6833e-06
8.64125e-06
8.5937e-06
8.54069e-06
8.4823e-06
8.41874e-06
8.35027e-06
8.27731e-06
8.20037e-06
8.1201e-06
8.03729e-06
7.95282e-06
7.8677e-06
7.78297e-06
7.69971e-06
7.61894e-06
7.54163e-06
7.46858e-06
7.40041e-06
7.33755e-06
7.28005e-06
7.22794e-06
7.18116e-06
7.13951e-06
7.10277e-06
7.07065e-06
7.04287e-06
7.01913e-06
6.99908e-06
6.98244e-06
6.96889e-06
6.95823e-06
6.95018e-06
6.94457e-06
6.94122e-06
6.93997e-06
6.94074e-06
6.94338e-06
6.94779e-06
6.95388e-06
6.96158e-06
6.97087e-06
6.98168e-06
6.9941e-06
7.00842e-06
7.02474e-06
7.04366e-06
7.06542e-06
7.09091e-06
7.12132e-06
7.22211e-06
7.25605e-06
7.29512e-06
7.33726e-06
7.3813e-06
7.42679e-06
7.47287e-06
7.51933e-06
7.5659e-06
7.61241e-06
7.65887e-06
7.70529e-06
7.7517e-06
7.79812e-06
7.84455e-06
7.89094e-06
7.93721e-06
7.98327e-06
8.02899e-06
8.07424e-06
8.1189e-06
8.16283e-06
8.20587e-06
8.24789e-06
8.28871e-06
8.32818e-06
8.36612e-06
8.40237e-06
8.43674e-06
8.46906e-06
8.49917e-06
8.52691e-06
8.5521e-06
8.57458e-06
8.5942e-06
8.61079e-06
8.6242e-06
8.63426e-06
8.64083e-06
8.64376e-06
8.64288e-06
8.63807e-06
8.62919e-06
8.61611e-06
8.59872e-06
8.57692e-06
8.55064e-06
8.51982e-06
8.48446e-06
8.44457e-06
8.40022e-06
8.35152e-06
8.29868e-06
8.24193e-06
8.1816e-06
8.11812e-06
8.05199e-06
7.98378e-06
7.91416e-06
7.84386e-06
7.77366e-06
7.70435e-06
7.63672e-06
7.57148e-06
7.50932e-06
7.45078e-06
7.39627e-06
7.34607e-06
7.30027e-06
7.25873e-06
7.22134e-06
7.18796e-06
7.15839e-06
7.13243e-06
7.10986e-06
7.09049e-06
7.07409e-06
7.06042e-06
7.04926e-06
7.04038e-06
7.03364e-06
7.02883e-06
7.02583e-06
7.02449e-06
7.02472e-06
7.02646e-06
7.0296e-06
7.03408e-06
7.03984e-06
7.04683e-06
7.05507e-06
7.06452e-06
7.07531e-06
7.08776e-06
7.102e-06
7.11865e-06
7.13798e-06
7.16088e-06
7.18854e-06
7.28687e-06
7.31724e-06
7.35249e-06
7.39055e-06
7.43019e-06
7.47098e-06
7.51208e-06
7.55332e-06
7.59444e-06
7.63533e-06
7.67601e-06
7.71652e-06
7.75692e-06
7.79725e-06
7.83752e-06
7.87769e-06
7.9177e-06
7.95746e-06
7.99685e-06
8.03576e-06
8.07404e-06
8.11157e-06
8.14819e-06
8.18376e-06
8.2181e-06
8.25107e-06
8.28249e-06
8.3122e-06
8.34e-06
8.36576e-06
8.3893e-06
8.41047e-06
8.42911e-06
8.44509e-06
8.45826e-06
8.46849e-06
8.47564e-06
8.47959e-06
8.48023e-06
8.47744e-06
8.47112e-06
8.4612e-06
8.44759e-06
8.43025e-06
8.40914e-06
8.38425e-06
8.35559e-06
8.3232e-06
8.28719e-06
8.24765e-06
8.20477e-06
8.15878e-06
8.10993e-06
8.05857e-06
8.00508e-06
7.94989e-06
7.89351e-06
7.83647e-06
7.77933e-06
7.7227e-06
7.66714e-06
7.61322e-06
7.56145e-06
7.5123e-06
7.46612e-06
7.42319e-06
7.38368e-06
7.34765e-06
7.315e-06
7.28552e-06
7.25907e-06
7.23548e-06
7.2146e-06
7.19626e-06
7.18032e-06
7.16666e-06
7.15511e-06
7.14552e-06
7.13772e-06
7.13156e-06
7.12694e-06
7.12369e-06
7.12175e-06
7.121e-06
7.12139e-06
7.12289e-06
7.12541e-06
7.12892e-06
7.13339e-06
7.13879e-06
7.14516e-06
7.15249e-06
7.16093e-06
7.17083e-06
7.18235e-06
7.19613e-06
7.21246e-06
7.23225e-06
7.25666e-06
7.35271e-06
7.37918e-06
7.41035e-06
7.44412e-06
7.47922e-06
7.51518e-06
7.55124e-06
7.5872e-06
7.62286e-06
7.65813e-06
7.69306e-06
7.72773e-06
7.76221e-06
7.79656e-06
7.83081e-06
7.86493e-06
7.89889e-06
7.93259e-06
7.96594e-06
7.9988e-06
8.03107e-06
8.06259e-06
8.09323e-06
8.12284e-06
8.15125e-06
8.17833e-06
8.20389e-06
8.22778e-06
8.24984e-06
8.26991e-06
8.28785e-06
8.30351e-06
8.31678e-06
8.32752e-06
8.33563e-06
8.34099e-06
8.3435e-06
8.34309e-06
8.33968e-06
8.3332e-06
8.32362e-06
8.31089e-06
8.29501e-06
8.27599e-06
8.25386e-06
8.22868e-06
8.20053e-06
8.16953e-06
8.13582e-06
8.09961e-06
8.0611e-06
8.02056e-06
7.97829e-06
7.93462e-06
7.88992e-06
7.84459e-06
7.79906e-06
7.75374e-06
7.70907e-06
7.66549e-06
7.62338e-06
7.58311e-06
7.54498e-06
7.50924e-06
7.47607e-06
7.44556e-06
7.41773e-06
7.39254e-06
7.36976e-06
7.34921e-06
7.33073e-06
7.31418e-06
7.29942e-06
7.28635e-06
7.27488e-06
7.26494e-06
7.25643e-06
7.24923e-06
7.24325e-06
7.23838e-06
7.23455e-06
7.23165e-06
7.22964e-06
7.22843e-06
7.22801e-06
7.22835e-06
7.22941e-06
7.23117e-06
7.23363e-06
7.23676e-06
7.24062e-06
7.24524e-06
7.25077e-06
7.25758e-06
7.26587e-06
7.27628e-06
7.28916e-06
7.30539e-06
7.32617e-06
7.42027e-06
7.4426e-06
7.46952e-06
7.49889e-06
7.52939e-06
7.56052e-06
7.59156e-06
7.62232e-06
7.65261e-06
7.68239e-06
7.71174e-06
7.74076e-06
7.76955e-06
7.79818e-06
7.8267e-06
7.85512e-06
7.88339e-06
7.91145e-06
7.93919e-06
7.96652e-06
7.9933e-06
8.01941e-06
8.04472e-06
8.06907e-06
8.09232e-06
8.11432e-06
8.13491e-06
8.15394e-06
8.17127e-06
8.18677e-06
8.2003e-06
8.21174e-06
8.22099e-06
8.22795e-06
8.23254e-06
8.23467e-06
8.2343e-06
8.23136e-06
8.22583e-06
8.21769e-06
8.20694e-06
8.19359e-06
8.17768e-06
8.15926e-06
8.13842e-06
8.11526e-06
8.0899e-06
8.0625e-06
8.03324e-06
8.00231e-06
7.96996e-06
7.93643e-06
7.90201e-06
7.86699e-06
7.83167e-06
7.79638e-06
7.76145e-06
7.72718e-06
7.69389e-06
7.66186e-06
7.63133e-06
7.60252e-06
7.57558e-06
7.55064e-06
7.52773e-06
7.50686e-06
7.48795e-06
7.47092e-06
7.45546e-06
7.44144e-06
7.42871e-06
7.41713e-06
7.40662e-06
7.3971e-06
7.38851e-06
7.38084e-06
7.37403e-06
7.368e-06
7.36271e-06
7.35808e-06
7.35408e-06
7.35062e-06
7.34769e-06
7.34525e-06
7.34327e-06
7.34178e-06
7.34073e-06
7.34015e-06
7.34002e-06
7.34035e-06
7.34122e-06
7.34264e-06
7.34481e-06
7.3481e-06
7.35275e-06
7.35941e-06
7.36846e-06
7.38079e-06
7.39764e-06
7.49025e-06
7.50828e-06
7.53088e-06
7.55584e-06
7.58177e-06
7.60818e-06
7.63432e-06
7.66005e-06
7.68519e-06
7.70973e-06
7.73379e-06
7.75748e-06
7.78093e-06
7.80424e-06
7.82747e-06
7.85065e-06
7.87375e-06
7.89672e-06
7.91947e-06
7.94191e-06
7.96391e-06
7.98537e-06
8.00614e-06
8.02609e-06
8.04508e-06
8.06297e-06
8.07962e-06
8.0949e-06
8.10867e-06
8.12081e-06
8.13122e-06
8.13979e-06
8.14645e-06
8.15112e-06
8.15374e-06
8.15427e-06
8.15267e-06
8.14894e-06
8.14306e-06
8.13504e-06
8.12494e-06
8.11278e-06
8.09864e-06
8.0826e-06
8.06477e-06
8.04527e-06
8.02423e-06
8.00182e-06
7.97822e-06
7.9536e-06
7.9282e-06
7.90223e-06
7.87591e-06
7.84949e-06
7.82321e-06
7.7973e-06
7.772e-06
7.74752e-06
7.72407e-06
7.70181e-06
7.68089e-06
7.66142e-06
7.64346e-06
7.62703e-06
7.61211e-06
7.59864e-06
7.58651e-06
7.57556e-06
7.56551e-06
7.55623e-06
7.54759e-06
7.53948e-06
7.53182e-06
7.52457e-06
7.51772e-06
7.51125e-06
7.50517e-06
7.49942e-06
7.49399e-06
7.48881e-06
7.48392e-06
7.47923e-06
7.47475e-06
7.47046e-06
7.46638e-06
7.46252e-06
7.45888e-06
7.45548e-06
7.45232e-06
7.44944e-06
7.44691e-06
7.44476e-06
7.44321e-06
7.44264e-06
7.44332e-06
7.44591e-06
7.45083e-06
7.459e-06
7.47168e-06
7.56341e-06
7.57705e-06
7.59534e-06
7.61596e-06
7.63747e-06
7.65933e-06
7.68082e-06
7.70179e-06
7.72209e-06
7.74175e-06
7.7609e-06
7.77969e-06
7.79828e-06
7.81677e-06
7.83526e-06
7.85379e-06
7.87235e-06
7.89091e-06
7.90938e-06
7.92769e-06
7.94572e-06
7.96337e-06
7.9805e-06
7.99699e-06
8.01272e-06
8.02755e-06
8.04135e-06
8.054e-06
8.06539e-06
8.07541e-06
8.08396e-06
8.09099e-06
8.0964e-06
8.10017e-06
8.10224e-06
8.1026e-06
8.10123e-06
8.09814e-06
8.09335e-06
8.08689e-06
8.07882e-06
8.0692e-06
8.05811e-06
8.04565e-06
8.03191e-06
8.01703e-06
8.00113e-06
7.98437e-06
7.9669e-06
7.94889e-06
7.9305e-06
7.91193e-06
7.89334e-06
7.87491e-06
7.85682e-06
7.83924e-06
7.82233e-06
7.80621e-06
7.79102e-06
7.77685e-06
7.76377e-06
7.7518e-06
7.74096e-06
7.73121e-06
7.72249e-06
7.7147e-06
7.70771e-06
7.70128e-06
7.69519e-06
7.68933e-06
7.68357e-06
7.67781e-06
7.67199e-06
7.6661e-06
7.66012e-06
7.65408e-06
7.648e-06