/*--------------------------------*- C++ -*----------------------------------*\
| =========                 |                                                 |
| \\      /  F ield         | OpenFOAM: The Open Source CFD Toolbox           |
|  \\    /   O peration     | Version:  2.3.x                                 |
|   \\  /    A nd           | Web:      www.OpenFOAM.org                      |
|    \\/     M anipulation  |                                                 |
\*---------------------------------------------------------------------------*/
FoamFile
{
    version     2.0;
    format      ascii;
    class       volScalarField;
    location    "10000";
    object      nut;
}
// * * * * * * * * * * * * * * * * * * * * * * * * * * * * * * * * * * * * * //

dimensions      [0 2 -1 0 0 0 0];

internalField   nonuniform List<scalar> 
14751
(
2.44587e-11
2.58259e-11
2.73411e-11
2.89611e-11
3.07134e-11
3.25919e-11
3.45666e-11
3.66695e-11
3.88865e-11
4.12433e-11
4.37125e-11
4.63224e-11
4.90056e-11
5.17705e-11
5.45927e-11
5.74549e-11
6.03667e-11
6.32948e-11
6.62584e-11
6.92458e-11
7.22703e-11
7.53243e-11
7.84239e-11
8.15389e-11
8.46986e-11
8.78911e-11
9.11212e-11
9.43833e-11
9.76804e-11
1.01011e-10
1.04373e-10
1.07763e-10
1.1118e-10
1.14622e-10
1.18086e-10
1.21564e-10
1.25076e-10
1.28605e-10
1.32147e-10
1.35695e-10
1.39261e-10
1.42828e-10
1.46358e-10
1.49862e-10
1.53314e-10
1.56703e-10
1.60019e-10
1.63254e-10
1.66401e-10
1.69434e-10
1.72337e-10
1.75096e-10
1.77688e-10
1.80097e-10
1.82305e-10
1.84292e-10
1.86035e-10
1.87514e-10
1.8871e-10
1.89611e-10
1.90107e-10
1.9004e-10
1.89226e-10
1.87466e-10
1.84521e-10
1.80061e-10
1.73749e-10
1.65299e-10
1.546e-10
1.41719e-10
1.27073e-10
1.11394e-10
9.56122e-11
8.06281e-11
6.71005e-11
5.53885e-11
4.56175e-11
3.77443e-11
3.16651e-11
2.71111e-11
2.38131e-11
2.14527e-11
1.97766e-11
1.85771e-11
1.77219e-11
1.7136e-11
1.67691e-11
1.65877e-11
1.65676e-11
1.66909e-11
1.69479e-11
1.73272e-11
1.78248e-11
1.84404e-11
1.91623e-11
2.00039e-11
2.09445e-11
2.19883e-11
2.31406e-11
1.68558e-09
1.78045e-09
1.88514e-09
1.99642e-09
2.11625e-09
2.2444e-09
2.37888e-09
2.52108e-09
2.67043e-09
2.82939e-09
2.99616e-09
3.17268e-09
3.35452e-09
3.54237e-09
3.73451e-09
3.92992e-09
4.12915e-09
4.33011e-09
4.53405e-09
4.74033e-09
4.94983e-09
5.16213e-09
5.37831e-09
5.59646e-09
5.81852e-09
6.04377e-09
6.27257e-09
6.50456e-09
6.73997e-09
6.97877e-09
7.22073e-09
7.46577e-09
7.71374e-09
7.96452e-09
8.21794e-09
8.4736e-09
8.73269e-09
8.99418e-09
9.25767e-09
9.52294e-09
9.79066e-09
1.00593e-08
1.03264e-08
1.05923e-08
1.08554e-08
1.11148e-08
1.13695e-08
1.16191e-08
1.18628e-08
1.20986e-08
1.23251e-08
1.2541e-08
1.27445e-08
1.29344e-08
1.31093e-08
1.32675e-08
1.3407e-08
1.35263e-08
1.36238e-08
1.36983e-08
1.37406e-08
1.37375e-08
1.36752e-08
1.35381e-08
1.33071e-08
1.2957e-08
1.24632e-08
1.18063e-08
1.0982e-08
1.00011e-08
8.9016e-09
7.7428e-09
6.59524e-09
5.52278e-09
4.56853e-09
3.75272e-09
3.07914e-09
2.54105e-09
2.12809e-09
1.81961e-09
1.59734e-09
1.43903e-09
1.32723e-09
1.24773e-09
1.19155e-09
1.15363e-09
1.13057e-09
1.12013e-09
1.12071e-09
1.13113e-09
1.15077e-09
1.17891e-09
1.21529e-09
1.25988e-09
1.31185e-09
1.3721e-09
1.43912e-09
1.51297e-09
1.59377e-09
1.21283e-08
1.28595e-08
1.36879e-08
1.45959e-08
1.56018e-08
1.67038e-08
1.78851e-08
1.91607e-08
2.05248e-08
2.1979e-08
2.35287e-08
2.52002e-08
2.69593e-08
2.88163e-08
3.07554e-08
3.27702e-08
3.48645e-08
3.70212e-08
3.92509e-08
4.15481e-08
4.392e-08
4.63633e-08
4.88864e-08
5.14717e-08
5.41371e-08
5.68756e-08
5.96896e-08
6.25753e-08
6.55342e-08
6.85653e-08
7.16653e-08
7.48325e-08
7.80644e-08
8.13586e-08
8.47122e-08
8.81205e-08
9.15937e-08
9.51208e-08
9.86959e-08
1.02316e-07
1.05982e-07
1.09677e-07
1.13373e-07
1.17067e-07
1.20746e-07
1.24387e-07
1.27975e-07
1.31498e-07
1.34935e-07
1.38268e-07
1.41475e-07
1.44534e-07
1.47419e-07
1.50109e-07
1.52579e-07
1.54801e-07
1.56745e-07
1.58384e-07
1.5969e-07
1.60648e-07
1.61088e-07
1.60843e-07
1.59723e-07
1.57503e-07
1.53921e-07
1.48664e-07
1.41439e-07
1.32068e-07
1.20604e-07
1.07352e-07
9.29765e-08
7.83885e-08
6.45463e-08
5.22038e-08
4.17542e-08
3.3254e-08
2.65547e-08
2.14183e-08
1.76017e-08
1.48118e-08
1.28159e-08
1.14038e-08
1.04052e-08
9.68839e-09
9.17122e-09
8.80704e-09
8.56484e-09
8.42418e-09
8.37032e-09
8.39256e-09
8.4848e-09
8.64022e-09
8.85696e-09
9.13532e-09
9.46993e-09
9.86976e-09
1.03258e-08
1.08448e-08
1.14344e-08
5.38014e-08
5.72967e-08
6.13747e-08
6.59907e-08
7.12565e-08
7.71835e-08
8.36936e-08
9.09028e-08
9.88019e-08
1.07425e-07
1.16821e-07
1.2702e-07
1.38066e-07
1.50111e-07
1.6307e-07
1.76951e-07
1.91787e-07
2.07494e-07
2.24136e-07
2.41681e-07
2.60161e-07
2.79547e-07
2.99867e-07
3.20993e-07
3.43009e-07
3.65847e-07
3.89486e-07
4.13866e-07
4.38963e-07
4.64728e-07
4.91101e-07
5.18029e-07
5.45454e-07
5.73322e-07
6.01573e-07
6.30144e-07
6.59053e-07
6.88199e-07
7.17517e-07
7.46958e-07
7.76469e-07
8.05939e-07
8.3514e-07
8.63987e-07
8.92313e-07
9.20069e-07
9.47154e-07
9.7347e-07
9.98881e-07
1.02328e-06
1.04652e-06
1.06848e-06
1.08898e-06
1.10791e-06
1.1251e-06
1.1404e-06
1.15362e-06
1.16458e-06
1.17309e-06
1.17898e-06
1.18104e-06
1.17834e-06
1.16966e-06
1.15348e-06
1.12793e-06
1.09073e-06
1.03953e-06
9.72422e-07
8.88731e-07
7.89574e-07
6.78988e-07
5.63843e-07
4.52652e-07
3.53236e-07
2.70546e-07
2.05919e-07
1.5774e-07
1.22861e-07
9.80927e-08
8.05246e-08
6.80925e-08
5.92425e-08
5.30051e-08
4.85078e-08
4.52104e-08
4.28063e-08
4.10941e-08
3.99413e-08
3.92525e-08
3.89586e-08
3.90177e-08
3.93861e-08
4.00522e-08
4.10179e-08
4.22586e-08
4.38284e-08
4.56924e-08
4.79121e-08
5.05552e-08
1.96322e-07
2.1012e-07
2.26662e-07
2.45893e-07
2.68342e-07
2.94093e-07
3.2277e-07
3.54921e-07
3.90481e-07
4.29553e-07
4.72295e-07
5.18791e-07
5.69059e-07
6.23072e-07
6.80971e-07
7.42884e-07
8.08711e-07
8.77926e-07
9.50518e-07
1.02611e-06
1.10455e-06
1.18548e-06
1.26872e-06
1.35362e-06
1.44023e-06
1.52811e-06
1.61701e-06
1.70658e-06
1.79661e-06
1.88682e-06
1.97696e-06
2.0668e-06
2.15614e-06
2.24479e-06
2.33259e-06
2.41938e-06
2.50519e-06
2.58981e-06
2.67313e-06
2.75509e-06
2.83539e-06
2.91373e-06
2.98994e-06
3.06391e-06
3.13535e-06
3.2042e-06
3.27033e-06
3.3336e-06
3.39378e-06
3.45071e-06
3.50417e-06
3.55394e-06
3.59974e-06
3.64135e-06
3.67853e-06
3.71099e-06
3.73836e-06
3.7603e-06
3.77631e-06
3.78579e-06
3.7865e-06
3.77676e-06
3.75409e-06
3.71537e-06
3.65662e-06
3.57295e-06
3.45873e-06
3.30834e-06
3.11718e-06
2.88245e-06
2.60557e-06
2.29364e-06
1.96038e-06
1.62516e-06
1.30965e-06
1.03276e-06
8.05204e-07
6.27859e-07
4.95188e-07
3.97923e-07
3.27574e-07
2.76542e-07
2.3963e-07
2.1309e-07
1.93539e-07
1.79034e-07
1.68307e-07
1.60521e-07
1.55083e-07
1.51564e-07
1.49694e-07
1.49216e-07
1.50043e-07
1.52175e-07
1.55491e-07
1.60251e-07
1.66313e-07
1.74025e-07
1.8376e-07
6.01303e-07
6.39952e-07
6.86979e-07
7.42052e-07
8.06465e-07
8.80045e-07
9.61144e-07
1.05093e-06
1.14869e-06
1.25421e-06
1.36742e-06
1.48808e-06
1.61578e-06
1.75022e-06
1.89115e-06
2.03789e-06
2.19006e-06
2.3473e-06
2.50928e-06
2.67495e-06
2.84376e-06
3.01488e-06
3.18781e-06
3.36139e-06
3.53559e-06
3.70966e-06
3.88313e-06
4.05546e-06
4.22628e-06
4.39523e-06
4.56189e-06
4.72599e-06
4.88723e-06
5.04541e-06
5.20032e-06
5.35179e-06
5.49985e-06
5.64427e-06
5.78493e-06
5.92145e-06
6.05361e-06
6.18125e-06
6.30411e-06
6.42205e-06
6.53467e-06
6.64195e-06
6.74369e-06
6.83971e-06
6.92969e-06
7.01344e-06
7.09063e-06
7.16095e-06
7.22399e-06
7.27944e-06
7.32693e-06
7.36601e-06
7.39605e-06
7.41642e-06
7.42609e-06
7.42366e-06
7.40659e-06
7.37228e-06
7.31721e-06
7.237e-06
7.12622e-06
6.97845e-06
6.78656e-06
6.54363e-06
6.24411e-06
5.88468e-06
5.46663e-06
4.99701e-06
4.48936e-06
3.96271e-06
3.43937e-06
2.94174e-06
2.48797e-06
2.08928e-06
1.7511e-06
1.47162e-06
1.24639e-06
1.06722e-06
9.26616e-07
8.16652e-07
7.32205e-07
6.66915e-07
6.16402e-07
5.77586e-07
5.48175e-07
5.26393e-07
5.1108e-07
5.01095e-07
4.95982e-07
4.95621e-07
4.99458e-07
5.08322e-07
5.21611e-07
5.40537e-07
5.66294e-07
1.40338e-06
1.47587e-06
1.56566e-06
1.67151e-06
1.7955e-06
1.93657e-06
2.09092e-06
2.26029e-06
2.44285e-06
2.6378e-06
2.84466e-06
3.06273e-06
3.29106e-06
3.52897e-06
3.77578e-06
4.03029e-06
4.29171e-06
4.55841e-06
4.82969e-06
5.10496e-06
5.38321e-06
5.66286e-06
5.94296e-06
6.22172e-06
6.49895e-06
6.7735e-06
7.04467e-06
7.31164e-06
7.57389e-06
7.8309e-06
8.08212e-06
8.32717e-06
8.5657e-06
8.79743e-06
9.02215e-06
9.23965e-06
9.44995e-06
9.65278e-06
9.84784e-06
1.00346e-05
1.02132e-05
1.03834e-05
1.0545e-05
1.06977e-05
1.08412e-05
1.09754e-05
1.11001e-05
1.1215e-05
1.13199e-05
1.14143e-05
1.14981e-05
1.15706e-05
1.16315e-05
1.16802e-05
1.17163e-05
1.17389e-05
1.17472e-05
1.17401e-05
1.17158e-05
1.16718e-05
1.16061e-05
1.15149e-05
1.13938e-05
1.12376e-05
1.104e-05
1.07942e-05
1.04928e-05
1.01293e-05
9.69943e-06
9.20156e-06
8.63936e-06
8.02241e-06
7.36648e-06
6.69202e-06
6.02165e-06
5.3769e-06
4.7746e-06
4.22512e-06
3.73464e-06
3.30344e-06
2.93054e-06
2.61092e-06
2.34017e-06
2.11215e-06
1.92128e-06
1.76436e-06
1.63601e-06
1.53163e-06
1.44764e-06
1.38087e-06
1.32918e-06
1.29018e-06
1.26286e-06
1.24699e-06
1.24116e-06
1.24719e-06
1.26359e-06
1.29314e-06
1.3382e-06
2.57966e-06
2.69385e-06
2.83799e-06
3.00959e-06
3.21151e-06
3.44161e-06
3.69329e-06
3.96875e-06
4.26445e-06
4.57849e-06
4.90956e-06
5.25598e-06
5.61576e-06
5.98739e-06
6.36929e-06
6.75927e-06
7.15578e-06
7.55606e-06
7.95899e-06
8.36247e-06
8.7651e-06
9.16583e-06
9.56307e-06
9.95442e-06
1.03395e-05
1.07169e-05
1.10857e-05
1.1445e-05
1.17943e-05
1.21329e-05
1.24604e-05
1.27765e-05
1.30807e-05
1.3373e-05
1.36531e-05
1.39209e-05
1.41765e-05
1.44196e-05
1.46496e-05
1.48665e-05
1.50705e-05
1.52615e-05
1.54391e-05
1.56034e-05
1.57537e-05
1.58902e-05
1.60126e-05
1.61207e-05
1.6214e-05
1.62923e-05
1.63551e-05
1.64018e-05
1.64318e-05
1.64445e-05
1.64391e-05
1.64146e-05
1.63697e-05
1.63027e-05
1.62112e-05
1.6092e-05
1.59432e-05
1.57606e-05
1.55394e-05
1.52741e-05
1.49585e-05
1.45863e-05
1.41514e-05
1.36494e-05
1.30782e-05
1.24396e-05
1.17403e-05
1.09924e-05
1.02131e-05
9.42275e-06
8.64245e-06
7.89136e-06
7.18409e-06
6.52962e-06
5.93371e-06
5.39698e-06
4.91931e-06
4.49672e-06
4.12613e-06
3.80274e-06
3.52247e-06
3.28152e-06
3.07615e-06
2.90355e-06
2.76017e-06
2.6421e-06
2.54703e-06
2.47174e-06
2.41509e-06
2.37718e-06
2.35578e-06
2.35449e-06
2.37111e-06
2.41108e-06
2.47827e-06
4.12735e-06
4.30407e-06
4.52838e-06
4.79566e-06
5.10939e-06
5.46559e-06
5.85322e-06
6.2745e-06
6.72268e-06
7.19377e-06
7.68471e-06
8.19209e-06
8.71227e-06
9.2424e-06
9.77977e-06
1.0321e-05
1.08638e-05
1.14043e-05
1.19411e-05
1.24716e-05
1.29944e-05
1.3507e-05
1.40085e-05
1.44974e-05
1.49731e-05
1.54342e-05
1.58798e-05
1.63093e-05
1.67222e-05
1.71182e-05
1.74969e-05
1.78581e-05
1.82017e-05
1.85277e-05
1.8836e-05
1.91268e-05
1.93998e-05
1.96547e-05
1.98915e-05
2.01106e-05
2.03119e-05
2.04955e-05
2.06611e-05
2.08087e-05
2.09379e-05
2.10486e-05
2.11407e-05
2.12138e-05
2.12675e-05
2.13015e-05
2.13152e-05
2.13079e-05
2.12787e-05
2.12271e-05
2.11517e-05
2.10515e-05
2.09247e-05
2.07691e-05
2.05822e-05
2.03605e-05
2.01005e-05
1.98e-05
1.94539e-05
1.90571e-05
1.86043e-05
1.80907e-05
1.75124e-05
1.68676e-05
1.61575e-05
1.53872e-05
1.45664e-05
1.3709e-05
1.28329e-05
1.19569e-05
1.10996e-05
1.02768e-05
9.50015e-06
8.77659e-06
8.11069e-06
7.50289e-06
6.95353e-06
6.4595e-06
6.01882e-06
5.6279e-06
5.28379e-06
4.98374e-06
4.7244e-06
4.50273e-06
4.31557e-06
4.16009e-06
4.03426e-06
3.93388e-06
3.85773e-06
3.80702e-06
3.77793e-06
3.77773e-06
3.80338e-06
3.86565e-06
3.97031e-06
6.15538e-06
6.42561e-06
6.7669e-06
7.16976e-06
7.63741e-06
8.16243e-06
8.72636e-06
9.33077e-06
9.96383e-06
1.06185e-05
1.12894e-05
1.19711e-05
1.26585e-05
1.33477e-05
1.40352e-05
1.4717e-05
1.53907e-05
1.60519e-05
1.66999e-05
1.7332e-05
1.79471e-05
1.85432e-05
1.91199e-05
1.96746e-05
2.02083e-05
2.07203e-05
2.12102e-05
2.16774e-05
2.21218e-05
2.25433e-05
2.29417e-05
2.33171e-05
2.36697e-05
2.39994e-05
2.43064e-05
2.45903e-05
2.48517e-05
2.50904e-05
2.53066e-05
2.55007e-05
2.56727e-05
2.58227e-05
2.59505e-05
2.60561e-05
2.6139e-05
2.61992e-05
2.62365e-05
2.62506e-05
2.62409e-05
2.62071e-05
2.61483e-05
2.60639e-05
2.59529e-05
2.58143e-05
2.56469e-05
2.54491e-05
2.5219e-05
2.49543e-05
2.46523e-05
2.43098e-05
2.39231e-05
2.3489e-05
2.30053e-05
2.24676e-05
2.18721e-05
2.12161e-05
2.04981e-05
1.97196e-05
1.8885e-05
1.80022e-05
1.70831e-05
1.61428e-05
1.51982e-05
1.42661e-05
1.33619e-05
1.2498e-05
1.16833e-05
1.09226e-05
1.02192e-05
9.57327e-06
8.98536e-06
8.45289e-06
7.97469e-06
7.54802e-06
7.17076e-06
6.84083e-06
6.55529e-06
6.31153e-06
6.10675e-06
5.93807e-06
5.80343e-06
5.6989e-06
5.62378e-06
5.5798e-06
5.56413e-06
5.58491e-06
5.63834e-06
5.7427e-06
5.91076e-06
8.8441e-06
9.23648e-06
9.7288e-06
1.03013e-05
1.0955e-05
1.1677e-05
1.24382e-05
1.32395e-05
1.40628e-05
1.48981e-05
1.57385e-05
1.65775e-05
1.74092e-05
1.82297e-05
1.90361e-05
1.98244e-05
2.05931e-05
2.1338e-05
2.20592e-05
2.2755e-05
2.34248e-05
2.40673e-05
2.46826e-05
2.52684e-05
2.58266e-05
2.63565e-05
2.68581e-05
2.73313e-05
2.77764e-05
2.81935e-05
2.85828e-05
2.89444e-05
2.92783e-05
2.95848e-05
2.98643e-05
3.01166e-05
3.03424e-05
3.05417e-05
3.07147e-05
3.08619e-05
3.09831e-05
3.10785e-05
3.11479e-05
3.11914e-05
3.12084e-05
3.1199e-05
3.11628e-05
3.10996e-05
3.10086e-05
3.08894e-05
3.07413e-05
3.05633e-05
3.03544e-05
3.01134e-05
2.98391e-05
2.95298e-05
2.91835e-05
2.87981e-05
2.83708e-05
2.78991e-05
2.738e-05
2.68106e-05
2.61881e-05
2.55122e-05
2.47812e-05
2.39946e-05
2.31538e-05
2.22629e-05
2.13293e-05
2.03631e-05
1.93775e-05
1.83872e-05
1.74074e-05
1.64524e-05
1.5534e-05
1.46617e-05
1.38416e-05
1.3077e-05
1.23702e-05
1.17208e-05
1.11296e-05
1.05943e-05
1.01142e-05
9.68696e-06
9.31101e-06
8.98469e-06
8.70523e-06
8.47029e-06
8.27731e-06
8.12333e-06
8.00661e-06
7.92315e-06
7.87291e-06
7.85898e-06
7.87888e-06
7.94387e-06
8.05104e-06
8.21928e-06
8.47754e-06
1.23714e-05
1.28948e-05
1.3551e-05
1.43022e-05
1.51453e-05
1.60602e-05
1.70066e-05
1.79847e-05
1.89711e-05
1.99543e-05
2.0927e-05
2.18829e-05
2.28168e-05
2.37257e-05
2.46078e-05
2.54601e-05
2.62822e-05
2.70703e-05
2.78261e-05
2.85482e-05
2.9237e-05
2.98918e-05
3.05131e-05
3.1099e-05
3.1652e-05
3.21715e-05
3.26579e-05
3.31114e-05
3.35325e-05
3.39214e-05
3.42785e-05
3.46039e-05
3.4898e-05
3.5161e-05
3.53934e-05
3.55954e-05
3.57674e-05
3.59096e-05
3.60223e-05
3.61059e-05
3.61602e-05
3.61855e-05
3.61816e-05
3.61484e-05
3.60855e-05
3.59929e-05
3.58702e-05
3.57171e-05
3.55329e-05
3.53171e-05
3.50689e-05
3.47873e-05
3.44714e-05
3.41199e-05
3.37316e-05
3.33049e-05
3.28381e-05
3.23294e-05
3.17767e-05
3.1178e-05
3.05312e-05
2.98348e-05
2.90877e-05
2.82896e-05
2.74429e-05
2.65509e-05
2.56174e-05
2.46489e-05
2.36547e-05
2.26462e-05
2.16365e-05
2.06389e-05
1.96662e-05
1.87291e-05
1.78365e-05
1.69948e-05
1.62083e-05
1.54784e-05
1.48069e-05
1.41929e-05
1.36374e-05
1.31376e-05
1.26934e-05
1.23025e-05
1.19633e-05
1.16746e-05
1.14334e-05
1.12376e-05
1.10846e-05
1.09713e-05
1.08963e-05
1.08554e-05
1.08493e-05
1.0883e-05
1.09542e-05
1.10787e-05
1.12535e-05
1.15038e-05
1.1863e-05
1.68299e-05
1.74618e-05
1.82631e-05
1.91696e-05
2.01725e-05
2.1245e-05
2.23363e-05
2.34473e-05
2.45503e-05
2.56337e-05
2.66911e-05
2.77174e-05
2.87084e-05
2.96626e-05
3.05794e-05
3.14568e-05
3.22956e-05
3.30927e-05
3.38506e-05
3.45686e-05
3.52478e-05
3.58879e-05
3.64899e-05
3.70519e-05
3.75769e-05
3.80645e-05
3.85154e-05
3.89296e-05
3.93081e-05
3.96511e-05
3.99589e-05
4.0232e-05
4.04708e-05
4.06755e-05
4.08467e-05
4.09845e-05
4.10896e-05
4.11623e-05
4.12027e-05
4.12111e-05
4.11876e-05
4.11323e-05
4.10451e-05
4.0926e-05
4.07745e-05
4.05906e-05
4.03739e-05
4.01242e-05
3.98408e-05
3.95233e-05
3.91708e-05
3.87827e-05
3.83578e-05
3.78954e-05
3.73943e-05
3.68535e-05
3.62715e-05
3.56474e-05
3.49798e-05
3.4268e-05
3.35113e-05
3.27099e-05
3.18646e-05
3.09775e-05
3.00522e-05
2.90952e-05
2.81152e-05
2.712e-05
2.61195e-05
2.51246e-05
2.41471e-05
2.31975e-05
2.22852e-05
2.14174e-05
2.05995e-05
1.98356e-05
1.91281e-05
1.8477e-05
1.78836e-05
1.7346e-05
1.68655e-05
1.64388e-05
1.60657e-05
1.57436e-05
1.54711e-05
1.52469e-05
1.50677e-05
1.49314e-05
1.48354e-05
1.47762e-05
1.4753e-05
1.47608e-05
1.48015e-05
1.48827e-05
1.50021e-05
1.51809e-05
1.54161e-05
1.57413e-05
1.61887e-05
2.21896e-05
2.2882e-05
2.37847e-05
2.48008e-05
2.59148e-05
2.70941e-05
2.82797e-05
2.94732e-05
3.0644e-05
3.17811e-05
3.28794e-05
3.39348e-05
3.49448e-05
3.59088e-05
3.68273e-05
3.76995e-05
3.85268e-05
3.93067e-05
4.00425e-05
4.07339e-05
4.13825e-05
4.19882e-05
4.25523e-05
4.3073e-05
4.35536e-05
4.39939e-05
4.43944e-05
4.47556e-05
4.50782e-05
4.53628e-05
4.56096e-05
4.58192e-05
4.59919e-05
4.61283e-05
4.62287e-05
4.62935e-05
4.63234e-05
4.63186e-05
4.62794e-05
4.6206e-05
4.60985e-05
4.59572e-05
4.57819e-05
4.55727e-05
4.53293e-05
4.50517e-05
4.47395e-05
4.43928e-05
4.40109e-05
4.35936e-05
4.31403e-05
4.26505e-05
4.21235e-05
4.1559e-05
4.09563e-05
4.03151e-05
3.9635e-05
3.89158e-05
3.81578e-05
3.73617e-05
3.65286e-05
3.56609e-05
3.47619e-05
3.38362e-05
3.28898e-05
3.19305e-05
3.09685e-05
3.00159e-05
2.90805e-05
2.81708e-05
2.72952e-05
2.64604e-05
2.56712e-05
2.4931e-05
2.42418e-05
2.36057e-05
2.30233e-05
2.2493e-05
2.20158e-05
2.15888e-05
2.12136e-05
2.08857e-05
2.06051e-05
2.03686e-05
2.01748e-05
2.00225e-05
1.99081e-05
1.98295e-05
1.97839e-05
1.9768e-05
1.97815e-05
1.98188e-05
1.98835e-05
1.99861e-05
2.01245e-05
2.03261e-05
2.05878e-05
2.09511e-05
2.14534e-05
2.83351e-05
2.90285e-05
2.9981e-05
3.10561e-05
3.22301e-05
3.34664e-05
3.46996e-05
3.59312e-05
3.71288e-05
3.82819e-05
3.93864e-05
4.04394e-05
4.14396e-05
4.23871e-05
4.32834e-05
4.41283e-05
4.49239e-05
4.56681e-05
4.63646e-05
4.70136e-05
4.76168e-05
4.81744e-05
4.86879e-05
4.91555e-05
4.95806e-05
4.9963e-05
5.03036e-05
5.06026e-05
5.0861e-05
5.10793e-05
5.12578e-05
5.13972e-05
5.14978e-05
5.15602e-05
5.1585e-05
5.15725e-05
5.15234e-05
5.1438e-05
5.13166e-05
5.11598e-05
5.09674e-05
5.074e-05
5.04776e-05
5.01802e-05
4.98479e-05
4.94807e-05
4.90786e-05
4.86418e-05
4.817e-05
4.76634e-05
4.71218e-05
4.65452e-05
4.59336e-05
4.52874e-05
4.46069e-05
4.38929e-05
4.31462e-05
4.23684e-05
4.15613e-05
4.07279e-05
3.98715e-05
3.8997e-05
3.811e-05
3.72177e-05
3.63279e-05
3.54495e-05
3.45913e-05
3.37655e-05
3.29795e-05
3.22354e-05
3.15367e-05
3.08847e-05
3.02793e-05
2.97196e-05
2.92049e-05
2.87351e-05
2.83094e-05
2.79251e-05
2.75826e-05
2.72785e-05
2.70145e-05
2.67852e-05
2.65911e-05
2.64286e-05
2.62964e-05
2.6194e-05
2.61176e-05
2.60657e-05
2.60358e-05
2.60249e-05
2.60335e-05
2.60564e-05
2.60988e-05
2.61747e-05
2.6283e-05
2.64569e-05
2.66941e-05
2.70444e-05
2.75534e-05
3.51162e-05
3.57683e-05
3.67234e-05
3.78129e-05
3.90039e-05
4.02564e-05
4.15003e-05
4.27361e-05
4.39296e-05
4.50709e-05
4.61568e-05
4.71851e-05
4.81552e-05
4.90679e-05
4.99255e-05
5.07282e-05
5.14785e-05
5.21747e-05
5.28207e-05
5.3417e-05
5.39655e-05
5.44665e-05
5.49215e-05
5.53289e-05
5.56921e-05
5.6011e-05
5.62864e-05
5.65187e-05
5.67088e-05
5.68574e-05
5.69649e-05
5.70319e-05
5.70589e-05
5.70466e-05
5.69955e-05
5.69062e-05
5.67795e-05
5.66158e-05
5.64154e-05
5.61791e-05
5.59071e-05
5.56e-05
5.52579e-05
5.48814e-05
5.44706e-05
5.40261e-05
5.35482e-05
5.30376e-05
5.24945e-05
5.19197e-05
5.13138e-05
5.06776e-05
5.00123e-05
4.93192e-05
4.86002e-05
4.78574e-05
4.70937e-05
4.63124e-05
4.55178e-05
4.47149e-05
4.39095e-05
4.31087e-05
4.23201e-05
4.15522e-05
4.0813e-05
4.01106e-05
3.94514e-05
3.88402e-05
3.82845e-05
3.77779e-05
3.73172e-05
3.68978e-05
3.6515e-05
3.61642e-05
3.58422e-05
3.55478e-05
3.52796e-05
3.5034e-05
3.4812e-05
3.46095e-05
3.44295e-05
3.42661e-05
3.41207e-05
3.399e-05
3.38737e-05
3.37722e-05
3.36825e-05
3.36036e-05
3.35344e-05
3.34723e-05
3.34192e-05
3.33705e-05
3.33337e-05
3.3326e-05
3.33481e-05
3.34386e-05
3.35974e-05
3.3882e-05
3.43466e-05
4.24226e-05
4.30004e-05
4.39203e-05
4.49898e-05
4.61651e-05
4.74037e-05
4.86315e-05
4.98474e-05
5.10156e-05
5.21262e-05
5.31767e-05
5.41654e-05
5.50923e-05
5.59587e-05
5.67674e-05
5.75187e-05
5.82156e-05
5.88567e-05
5.9446e-05
5.99843e-05
6.04735e-05
6.09141e-05
6.13074e-05
6.16521e-05
6.19515e-05
6.22055e-05
6.24151e-05
6.25807e-05
6.27033e-05
6.27836e-05
6.28222e-05
6.28196e-05
6.27766e-05
6.2694e-05
6.25725e-05
6.24127e-05
6.22157e-05
6.1982e-05
6.17123e-05
6.14076e-05
6.10683e-05
6.06954e-05
6.02895e-05
5.98515e-05
5.93821e-05
5.88823e-05
5.83533e-05
5.77963e-05
5.72124e-05
5.66034e-05
5.5971e-05
5.53172e-05
5.46446e-05
5.3956e-05
5.3255e-05
5.25459e-05
5.18333e-05
5.11229e-05
5.0421e-05
4.97346e-05
4.90713e-05
4.84391e-05
4.7846e-05
4.72995e-05
4.68053e-05
4.63674e-05
4.59867e-05
4.56605e-05
4.5389e-05
4.51592e-05
4.49617e-05
4.47867e-05
4.46259e-05
4.44726e-05
4.43226e-05
4.4175e-05
4.40285e-05
4.38799e-05
4.37315e-05
4.35797e-05
4.34291e-05
4.32743e-05
4.31184e-05
4.29588e-05
4.27968e-05
4.26343e-05
4.24692e-05
4.2302e-05
4.21325e-05
4.19594e-05
4.1786e-05
4.16085e-05
4.14367e-05
4.12912e-05
4.11749e-05
4.11315e-05
4.11637e-05
4.13365e-05
4.17129e-05
5.01876e-05
5.06657e-05
5.1522e-05
5.25463e-05
5.3683e-05
5.48869e-05
5.60807e-05
5.72609e-05
5.83901e-05
5.94585e-05
6.04636e-05
6.14041e-05
6.22807e-05
6.30948e-05
6.38494e-05
6.45454e-05
6.51859e-05
6.57697e-05
6.63008e-05
6.67804e-05
6.72103e-05
6.75911e-05
6.79243e-05
6.82083e-05
6.84468e-05
6.86396e-05
6.87877e-05
6.88917e-05
6.89526e-05
6.89714e-05
6.89485e-05
6.88849e-05
6.87815e-05
6.86392e-05
6.84589e-05
6.82416e-05
6.79886e-05
6.77007e-05
6.73791e-05
6.7025e-05
6.66395e-05
6.62239e-05
6.57796e-05
6.53079e-05
6.48104e-05
6.42889e-05
6.37453e-05
6.31821e-05
6.26015e-05
6.20065e-05
6.14e-05
6.07859e-05
6.0168e-05
5.95513e-05
5.89411e-05
5.83434e-05
5.77648e-05
5.72126e-05
5.66943e-05
5.62177e-05
5.57902e-05
5.54188e-05
5.5109e-05
5.48645e-05
5.46855e-05
5.45693e-05
5.45091e-05
5.44946e-05
5.45149e-05
5.45544e-05
5.45992e-05
5.46363e-05
5.46562e-05
5.46519e-05
5.462e-05
5.45609e-05
5.44748e-05
5.43599e-05
5.42202e-05
5.40535e-05
5.38664e-05
5.36549e-05
5.34234e-05
5.3171e-05
5.29007e-05
5.26158e-05
5.23157e-05
5.20023e-05
5.16764e-05
5.1338e-05
5.09918e-05
5.06351e-05
5.02799e-05
4.995e-05
4.9651e-05
4.9431e-05
4.92968e-05
4.93203e-05
4.95751e-05
5.83831e-05
5.87426e-05
5.95148e-05
6.04764e-05
6.15591e-05
6.27151e-05
6.38643e-05
6.49998e-05
6.60828e-05
6.71032e-05
6.80586e-05
6.89479e-05
6.97721e-05
7.05329e-05
7.12334e-05
7.18748e-05
7.24606e-05
7.29894e-05
7.34657e-05
7.38906e-05
7.4266e-05
7.45927e-05
7.48721e-05
7.51028e-05
7.52883e-05
7.54288e-05
7.55252e-05
7.55782e-05
7.55892e-05
7.55591e-05
7.54887e-05
7.53791e-05
7.52315e-05
7.50471e-05
7.48271e-05
7.45729e-05
7.42861e-05
7.39683e-05
7.36208e-05
7.32457e-05
7.28444e-05
7.24193e-05
7.19723e-05
7.15057e-05
7.1022e-05
7.0524e-05
7.0015e-05
6.94983e-05
6.89777e-05
6.84576e-05
6.79424e-05
6.74375e-05
6.69483e-05
6.64813e-05
6.60432e-05
6.56413e-05
6.52827e-05
6.49753e-05
6.47259e-05
6.45408e-05
6.4425e-05
6.43814e-05
6.44105e-05
6.45096e-05
6.46715e-05
6.48859e-05
6.51383e-05
6.54119e-05
6.56854e-05
6.59447e-05
6.61739e-05
6.63597e-05
6.64932e-05
6.65688e-05
6.65852e-05
6.65448e-05
6.64501e-05
6.63008e-05
6.61032e-05
6.58567e-05
6.557e-05
6.52404e-05
6.4874e-05
6.44715e-05
6.40374e-05
6.35768e-05
6.30901e-05
6.25808e-05
6.20508e-05
6.15013e-05
6.0938e-05
6.03598e-05
5.97806e-05
5.92274e-05
5.87088e-05
5.82772e-05
5.79439e-05
5.77876e-05
5.7892e-05
6.70118e-05
6.7238e-05
6.79114e-05
6.8799e-05
6.98189e-05
7.09202e-05
7.20198e-05
7.31075e-05
7.41426e-05
7.51145e-05
7.6021e-05
7.68609e-05
7.76356e-05
7.83467e-05
7.89978e-05
7.95903e-05
8.01276e-05
8.06088e-05
8.10384e-05
8.14176e-05
8.17486e-05
8.2032e-05
8.22693e-05
8.24594e-05
8.26057e-05
8.27085e-05
8.2769e-05
8.27881e-05
8.27672e-05
8.27075e-05
8.26103e-05
8.24768e-05
8.23085e-05
8.21071e-05
8.18744e-05
8.1612e-05
8.13223e-05
8.10072e-05
8.06691e-05
8.03104e-05
7.99336e-05
7.95419e-05
7.9138e-05
7.87254e-05
7.83076e-05
7.78886e-05
7.74728e-05
7.7065e-05
7.667e-05
7.62936e-05
7.59416e-05
7.56202e-05
7.53361e-05
7.50963e-05
7.49078e-05
7.47777e-05
7.47124e-05
7.47177e-05
7.47979e-05
7.49555e-05
7.51906e-05
7.55002e-05
7.58782e-05
7.63145e-05
7.67949e-05
7.73024e-05
7.78171e-05
7.83177e-05
7.87763e-05
7.91827e-05
7.95218e-05
7.97816e-05
7.99552e-05
8.00392e-05
8.00348e-05
7.99467e-05
7.97795e-05
7.95349e-05
7.92208e-05
7.88385e-05
7.83984e-05
7.7899e-05
7.73482e-05
7.67479e-05
7.61041e-05
7.54235e-05
7.47077e-05
7.39615e-05
7.31878e-05
7.2389e-05
7.15719e-05
7.07367e-05
6.98996e-05
6.90905e-05
6.83214e-05
6.76488e-05
6.70892e-05
6.67274e-05
6.66568e-05
7.60984e-05
7.61799e-05
7.67448e-05
7.7552e-05
7.85054e-05
7.95505e-05
8.06007e-05
8.16423e-05
8.26327e-05
8.35607e-05
8.44238e-05
8.52208e-05
8.59535e-05
8.66234e-05
8.72345e-05
8.77883e-05
8.82885e-05
8.87345e-05
8.91306e-05
8.94784e-05
8.97801e-05
9.00366e-05
9.02493e-05
9.04172e-05
9.0544e-05
9.06299e-05
9.06766e-05
9.0685e-05
9.0657e-05
9.0594e-05
9.04976e-05
9.03694e-05
9.02115e-05
9.00259e-05
8.98149e-05
8.95809e-05
8.93269e-05
8.90556e-05
8.87699e-05
8.84733e-05
8.81692e-05
8.78614e-05
8.75541e-05
8.72514e-05
8.69579e-05
8.66789e-05
8.64196e-05
8.61858e-05
8.59835e-05
8.58189e-05
8.56985e-05
8.56288e-05
8.56161e-05
8.5667e-05
8.57873e-05
8.59821e-05
8.6255e-05
8.66084e-05
8.70419e-05
8.75529e-05
8.81352e-05
8.87799e-05
8.9474e-05
9.02015e-05
9.09428e-05
9.16766e-05
9.23799e-05
9.30303e-05
9.35966e-05
9.4074e-05
9.44493e-05
9.47127e-05
9.48596e-05
9.48893e-05
9.4805e-05
9.46134e-05
9.43211e-05
9.39314e-05
9.34537e-05
9.28908e-05
9.22542e-05
9.1544e-05
9.0769e-05
8.99326e-05
8.90423e-05
8.81058e-05
8.71261e-05
8.61093e-05
8.50592e-05
8.39792e-05
8.28773e-05
8.17552e-05
8.06312e-05
7.95382e-05
7.84922e-05
7.75534e-05
7.6744e-05
7.61554e-05
7.58912e-05
8.56835e-05
8.5611e-05
8.60617e-05
8.67863e-05
8.76743e-05
8.86662e-05
8.96721e-05
9.0674e-05
9.16274e-05
9.25204e-05
9.33501e-05
9.41154e-05
9.48181e-05
9.546e-05
9.60453e-05
9.65756e-05
9.7055e-05
9.74829e-05
9.7864e-05
9.81999e-05
9.84931e-05
9.87444e-05
9.89555e-05
9.91254e-05
9.92582e-05
9.93541e-05
9.94151e-05
9.94425e-05
9.94383e-05
9.94045e-05
9.9343e-05
9.92559e-05
9.91457e-05
9.90151e-05
9.88669e-05
9.87042e-05
9.85307e-05
9.83497e-05
9.81652e-05
9.79814e-05
9.78023e-05
9.7633e-05
9.74781e-05
9.73428e-05
9.72325e-05
9.7153e-05
9.71102e-05
9.71103e-05
9.71594e-05
9.72638e-05
9.74293e-05
9.76616e-05
9.79656e-05
9.83457e-05
9.88052e-05
9.9346e-05
9.99674e-05
0.000100667
0.00010144
0.000102278
0.000103168
0.000104097
0.000105047
0.000105997
0.000106926
0.000107809
0.000108623
0.000109347
0.000109949
0.00011043
0.000110779
0.000110987
0.000111053
0.000110979
0.000110768
0.00011043
0.000109972
0.000109399
0.000108722
0.000107944
0.000107078
0.000106125
0.000105095
0.000103993
0.000102826
0.000101605
0.000100333
9.90181e-05
9.76643e-05
9.62764e-05
9.48634e-05
9.34287e-05
9.19927e-05
9.05915e-05
8.92453e-05
8.80184e-05
8.69391e-05
8.61054e-05
8.56329e-05
9.58181e-05
9.55843e-05
9.59186e-05
9.65623e-05
9.739e-05
9.83359e-05
9.93065e-05
0.000100279
0.000101208
0.000102079
0.00010289
0.000103639
0.000104328
0.00010496
0.000105538
0.000106064
0.000106544
0.000106976
0.000107365
0.000107714
0.000108024
0.000108297
0.000108535
0.000108736
0.000108906
0.000109044
0.000109153
0.000109234
0.00010929
0.000109323
0.000109335
0.000109329
0.000109309
0.000109277
0.000109236
0.000109191
0.000109145
0.000109104
0.00010907
0.00010905
0.000109048
0.00010907
0.00010912
0.000109205
0.000109329
0.0001095
0.000109722
0.000110002
0.000110345
0.000110756
0.000111239
0.000111799
0.000112438
0.000113156
0.000113955
0.000114831
0.000115779
0.000116793
0.000117863
0.000118975
0.000120113
0.000121259
0.000122393
0.000123492
0.000124533
0.000125493
0.000126349
0.00012708
0.000127659
0.000128089
0.000128361
0.00012847
0.000128415
0.0001282
0.000127829
0.000127313
0.000126661
0.000125877
0.000124974
0.000123956
0.000122837
0.000121617
0.000120309
0.000118918
0.000117452
0.000115923
0.000114337
0.0001127
0.00011102
0.000109302
0.000107556
0.000105786
0.000104016
0.000102286
0.000100619
9.90843e-05
9.77175e-05
9.66233e-05
9.59305e-05
0.00010656
0.000106159
0.000106378
0.000106946
0.000107722
0.000108633
0.000109581
0.00011054
0.00011146
0.000112326
0.000113136
0.000113889
0.000114585
0.000115228
0.000115821
0.000116368
0.000116873
0.000117336
0.000117761
0.000118151
0.000118508
0.000118834
0.00011913
0.000119397
0.000119637
0.000119853
0.000120047
0.00012022
0.000120375
0.000120515
0.000120643
0.000120762
0.000120874
0.000120985
0.000121097
0.000121215
0.000121344
0.000121488
0.000121652
0.000121842
0.000122063
0.000122319
0.000122618
0.000122963
0.000123361
0.000123817
0.000124336
0.000124922
0.000125579
0.000126312
0.000127121
0.000128008
0.000128972
0.000130012
0.000131122
0.000132298
0.000133529
0.000134806
0.000136113
0.000137435
0.000138753
0.000140047
0.000141294
0.000142474
0.000143562
0.000144537
0.000145379
0.000146065
0.000146576
0.000146916
0.000147076
0.000147054
0.000146851
0.000146469
0.000145916
0.000145201
0.000144335
0.000143323
0.000142177
0.000140902
0.000139512
0.00013801
0.000136406
0.000134709
0.000132927
0.000131073
0.000129154
0.000127178
0.000125154
0.000123086
0.000120988
0.000118865
0.000116743
0.000114664
0.000112659
0.000110799
0.00010913
0.000107762
0.000106839
0.000117968
0.000117397
0.000117505
0.000118006
0.000118742
0.000119633
0.000120575
0.000121537
0.000122467
0.00012335
0.000124181
0.00012496
0.000125687
0.000126366
0.000127001
0.000127596
0.000128155
0.000128677
0.000129168
0.000129631
0.000130068
0.000130481
0.000130871
0.000131238
0.000131586
0.000131918
0.000132234
0.000132538
0.000132833
0.000133121
0.000133405
0.000133689
0.000133976
0.000134271
0.000134577
0.000134899
0.000135242
0.000135612
0.000136012
0.000136448
0.000136926
0.00013745
0.000138026
0.000138658
0.00013935
0.000140108
0.000140934
0.000141833
0.000142804
0.00014385
0.00014497
0.000146162
0.000147422
0.000148745
0.000150124
0.000151548
0.000153007
0.000154485
0.000155967
0.000157434
0.000158866
0.000160243
0.000161543
0.000162745
0.000163828
0.000164772
0.00016556
0.000166161
0.000166573
0.000166795
0.000166822
0.000166649
0.00016628