/*--------------------------------*- C++ -*----------------------------------*\
| =========                 |                                                 |
| \\      /  F ield         | OpenFOAM: The Open Source CFD Toolbox           |
|  \\    /   O peration     | Version:  2.3.x                                 |
|   \\  /    A nd           | Web:      www.OpenFOAM.org                      |
|    \\/     M anipulation  |                                                 |
\*---------------------------------------------------------------------------*/
FoamFile
{
    version     2.0;
    format      ascii;
    class       volScalarField;
    location    "10000";
    object      p;
}
// * * * * * * * * * * * * * * * * * * * * * * * * * * * * * * * * * * * * * //

dimensions      [0 2 -2 0 0 0 0];

internalField   nonuniform List<scalar> 
14751
(
-3.18281e-05
-2.90511e-05
-2.56403e-05
-2.20051e-05
-1.79965e-05
-1.3694e-05
-9.20927e-06
-4.53054e-06
2.45663e-07
5.07968e-06
9.91244e-06
1.47024e-05
1.94002e-05
2.39687e-05
2.83784e-05
3.25966e-05
3.6611e-05
4.03956e-05
4.3947e-05
4.72523e-05
5.03124e-05
5.31219e-05
5.569e-05
5.80119e-05
6.01006e-05
6.19586e-05
6.35964e-05
6.50207e-05
6.62413e-05
6.7267e-05
6.81068e-05
6.87697e-05
6.92643e-05
6.95989e-05
6.97822e-05
6.98201e-05
6.97217e-05
6.94926e-05
6.91397e-05
6.86678e-05
6.80826e-05
6.739e-05
6.65925e-05
6.5697e-05
6.47043e-05
6.36197e-05
6.24453e-05
6.11849e-05
5.984e-05
5.8414e-05
5.69082e-05
5.53257e-05
5.36674e-05
5.19359e-05
5.01323e-05
4.82591e-05
4.63173e-05
4.43094e-05
4.22359e-05
4.01008e-05
3.79019e-05
3.56424e-05
3.33209e-05
3.09364e-05
2.84874e-05
2.59706e-05
2.33809e-05
2.07103e-05
1.79549e-05
1.51073e-05
1.21671e-05
9.13859e-06
6.03609e-06
2.88236e-06
-2.9639e-07
-3.47121e-06
-6.6112e-06
-9.70611e-06
-1.27278e-05
-1.56805e-05
-1.8536e-05
-2.13019e-05
-2.39517e-05
-2.6481e-05
-2.88737e-05
-3.11086e-05
-3.31694e-05
-3.50297e-05
-3.6663e-05
-3.80491e-05
-3.91402e-05
-3.99229e-05
-4.03702e-05
-4.04142e-05
-4.01072e-05
-3.93258e-05
-3.81296e-05
-3.64686e-05
-3.45654e-05
-3.1826e-05
-2.90491e-05
-2.56387e-05
-2.20037e-05
-1.79954e-05
-1.36931e-05
-9.20858e-06
-4.53001e-06
2.46051e-07
5.07994e-06
9.91257e-06
1.47025e-05
1.94001e-05
2.39685e-05
2.83782e-05
3.25962e-05
3.66106e-05
4.0395e-05
4.39465e-05
4.72517e-05
5.03116e-05
5.3121e-05
5.56891e-05
5.8011e-05
6.00997e-05
6.19577e-05
6.35956e-05
6.50198e-05
6.62405e-05
6.72662e-05
6.81061e-05
6.8769e-05
6.92636e-05
6.95983e-05
6.97817e-05
6.98196e-05
6.97213e-05
6.94923e-05
6.91395e-05
6.86675e-05
6.80825e-05
6.73899e-05
6.65924e-05
6.56969e-05
6.47043e-05
6.36198e-05
6.24454e-05
6.1185e-05
5.98402e-05
5.84141e-05
5.69084e-05
5.53259e-05
5.36677e-05
5.19361e-05
5.01325e-05
4.82594e-05
4.63176e-05
4.43097e-05
4.22362e-05
4.01011e-05
3.79021e-05
3.56426e-05
3.3321e-05
3.09364e-05
2.84872e-05
2.59702e-05
2.33802e-05
2.07094e-05
1.79536e-05
1.51057e-05
1.21653e-05
9.1367e-06
6.03428e-06
2.88079e-06
-2.97567e-07
-3.47189e-06
-6.61134e-06
-9.70568e-06
-1.27269e-05
-1.56791e-05
-1.85342e-05
-2.12996e-05
-2.39492e-05
-2.64782e-05
-2.88707e-05
-3.11053e-05
-3.3166e-05
-3.50261e-05
-3.66593e-05
-3.80455e-05
-3.91366e-05
-3.99193e-05
-4.03667e-05
-4.04108e-05
-4.01039e-05
-3.93228e-05
-3.81268e-05
-3.64659e-05
-3.45629e-05
-3.18243e-05
-2.90478e-05
-2.56378e-05
-2.20035e-05
-1.79956e-05
-1.36936e-05
-9.20923e-06
-4.5306e-06
2.45592e-07
5.07963e-06
9.91239e-06
1.47024e-05
1.94001e-05
2.39687e-05
2.83785e-05
3.25966e-05
3.6611e-05
4.03955e-05
4.39468e-05
4.72519e-05
5.03117e-05
5.3121e-05
5.56889e-05
5.80106e-05
6.00993e-05
6.19572e-05
6.3595e-05
6.50192e-05
6.62399e-05
6.72656e-05
6.81055e-05
6.87685e-05
6.92631e-05
6.95979e-05
6.97813e-05
6.98193e-05
6.9721e-05
6.9492e-05
6.91393e-05
6.86674e-05
6.80824e-05
6.73898e-05
6.65924e-05
6.5697e-05
6.47044e-05
6.36199e-05
6.24456e-05
6.11852e-05
5.98405e-05
5.84145e-05
5.69087e-05
5.53263e-05
5.36681e-05
5.19366e-05
5.0133e-05
4.826e-05
4.63181e-05
4.43103e-05
4.22368e-05
4.01017e-05
3.79026e-05
3.5643e-05
3.33212e-05
3.09365e-05
2.84871e-05
2.59698e-05
2.33795e-05
2.07083e-05
1.79521e-05
1.51039e-05
1.21633e-05
9.13467e-06
6.03237e-06
2.8792e-06
-2.98658e-07
-3.47237e-06
-6.61112e-06
-9.70479e-06
-1.27253e-05
-1.5677e-05
-1.85316e-05
-2.12967e-05
-2.39459e-05
-2.64748e-05
-2.88671e-05
-3.11017e-05
-3.31623e-05
-3.50224e-05
-3.66556e-05
-3.80419e-05
-3.9133e-05
-3.99158e-05
-4.03633e-05
-4.04075e-05
-4.01008e-05
-3.93198e-05
-3.81242e-05
-3.64634e-05
-3.45611e-05
-3.18235e-05
-2.90478e-05
-2.56384e-05
-2.20046e-05
-1.79974e-05
-1.36955e-05
-9.21114e-06
-4.53222e-06
2.44423e-07
5.0789e-06
9.91205e-06
1.47024e-05
1.94005e-05
2.39694e-05
2.83795e-05
3.25978e-05
3.66124e-05
4.03968e-05
4.3948e-05
4.72529e-05
5.03124e-05
5.31214e-05
5.5689e-05
5.80105e-05
6.00989e-05
6.19566e-05
6.35943e-05
6.50184e-05
6.6239e-05
6.72647e-05
6.81045e-05
6.87675e-05
6.92621e-05
6.95969e-05
6.97803e-05
6.98184e-05
6.97201e-05
6.94912e-05
6.91385e-05
6.86667e-05
6.80817e-05
6.73893e-05
6.65919e-05
6.56966e-05
6.47041e-05
6.36197e-05
6.24454e-05
6.11852e-05
5.98405e-05
5.84146e-05
5.6909e-05
5.53267e-05
5.36685e-05
5.19371e-05
5.01336e-05
4.82606e-05
4.63189e-05
4.43111e-05
4.22377e-05
4.01025e-05
3.79035e-05
3.56439e-05
3.3322e-05
3.09372e-05
2.84877e-05
2.59703e-05
2.33798e-05
2.07084e-05
1.79522e-05
1.51039e-05
1.21633e-05
9.13468e-06
6.03252e-06
2.87959e-06
-2.97911e-07
-3.47118e-06
-6.60939e-06
-9.70253e-06
-1.27225e-05
-1.56738e-05
-1.8528e-05
-2.12928e-05
-2.3942e-05
-2.64708e-05
-2.88632e-05
-3.10978e-05
-3.31586e-05
-3.50189e-05
-3.66523e-05
-3.80388e-05
-3.91301e-05
-3.99131e-05
-4.03609e-05
-4.0405e-05
-4.00987e-05
-3.93179e-05
-3.81226e-05
-3.64616e-05
-3.4561e-05
-3.18239e-05
-2.90494e-05
-2.56405e-05
-2.20074e-05
-1.80012e-05
-1.36992e-05
-9.2149e-06
-4.53556e-06
2.41666e-07
5.0767e-06
9.91038e-06
1.47012e-05
1.93997e-05
2.3969e-05
2.83793e-05
3.25979e-05
3.66126e-05
4.03969e-05
4.39479e-05
4.72524e-05
5.03116e-05
5.312e-05
5.56873e-05
5.80083e-05
6.00964e-05
6.19538e-05
6.35913e-05
6.50153e-05
6.62358e-05
6.72614e-05
6.81012e-05
6.87642e-05
6.92589e-05
6.95937e-05
6.97772e-05
6.98154e-05
6.97173e-05
6.94885e-05
6.91359e-05
6.86643e-05
6.80795e-05
6.73872e-05
6.65901e-05
6.56949e-05
6.47026e-05
6.36184e-05
6.24443e-05
6.11843e-05
5.98398e-05
5.84142e-05
5.69087e-05
5.53267e-05
5.36688e-05
5.19376e-05
5.01343e-05
4.82615e-05
4.632e-05
4.43124e-05
4.22391e-05
4.01041e-05
3.79051e-05
3.56456e-05
3.33239e-05
3.09392e-05
2.84898e-05
2.59725e-05
2.33824e-05
2.07115e-05
1.79559e-05
1.51085e-05
1.21689e-05
9.14137e-06
6.0401e-06
2.88778e-06
-2.89542e-07
-3.463e-06
-6.60154e-06
-9.69512e-06
-1.27154e-05
-1.5667e-05
-1.85214e-05
-2.12865e-05
-2.3936e-05
-2.64651e-05
-2.8858e-05
-3.10931e-05
-3.31543e-05
-3.5015e-05
-3.66489e-05
-3.80359e-05
-3.91277e-05
-3.9911e-05
-4.03593e-05
-4.04035e-05
-4.00977e-05
-3.93172e-05
-3.81223e-05
-3.64609e-05
-3.45629e-05
-3.18261e-05
-2.90535e-05
-2.56453e-05
-2.20131e-05
-1.8008e-05
-1.37062e-05
-9.22206e-06
-4.54238e-06
2.35412e-07
5.071e-06
9.9052e-06
1.46964e-05
1.93953e-05
2.3965e-05
2.83757e-05
3.25945e-05
3.66093e-05
4.03935e-05
4.39442e-05
4.72484e-05
5.03071e-05
5.31151e-05
5.56819e-05
5.80025e-05
6.00903e-05
6.19475e-05
6.35849e-05
6.50088e-05
6.62292e-05
6.72549e-05
6.80948e-05
6.8758e-05
6.92528e-05
6.95879e-05
6.97717e-05
6.98101e-05
6.97123e-05
6.94838e-05
6.91315e-05
6.86602e-05
6.80758e-05
6.73838e-05
6.6587e-05
6.56922e-05
6.47003e-05
6.36165e-05
6.24428e-05
6.11831e-05
5.9839e-05
5.84137e-05
5.69087e-05
5.5327e-05
5.36694e-05
5.19386e-05
5.01357e-05
4.82633e-05
4.63221e-05
4.43148e-05
4.22417e-05
4.0107e-05
3.79083e-05
3.5649e-05
3.33274e-05
3.0943e-05
2.84939e-05
2.59771e-05
2.33876e-05
2.07177e-05
1.79636e-05
1.5118e-05
1.21808e-05
9.15574e-06
6.05691e-06
2.90657e-06
-2.69605e-07
-3.44288e-06
-6.58196e-06
-9.67671e-06
-1.26983e-05
-1.56514e-05
-1.85072e-05
-2.12737e-05
-2.39245e-05
-2.6455e-05
-2.8849e-05
-3.10853e-05
-3.31476e-05
-3.50094e-05
-3.66441e-05
-3.80322e-05
-3.91249e-05
-3.9909e-05
-4.03582e-05
-4.04027e-05
-4.00978e-05
-3.93179e-05
-3.81235e-05
-3.64615e-05
-3.45674e-05
-3.1831e-05
-2.9061e-05
-2.56538e-05
-2.20227e-05
-1.80192e-05
-1.37179e-05
-9.23393e-06
-4.55401e-06
2.24329e-07
5.06049e-06
9.89526e-06
1.4687e-05
1.93864e-05
2.39566e-05
2.83678e-05
3.25869e-05
3.66019e-05
4.03862e-05
4.39368e-05
4.72406e-05
5.0299e-05
5.31065e-05
5.5673e-05
5.79934e-05
6.00811e-05
6.19382e-05
6.35756e-05
6.49996e-05
6.62202e-05
6.72461e-05
6.80863e-05
6.87498e-05
6.9245e-05
6.95805e-05
6.97647e-05
6.98035e-05
6.97062e-05
6.94782e-05
6.91263e-05
6.86555e-05
6.80716e-05
6.73801e-05
6.65839e-05
6.56895e-05
6.46981e-05
6.36149e-05
6.24417e-05
6.11825e-05
5.9839e-05
5.84142e-05
5.69097e-05
5.53285e-05
5.36714e-05
5.19411e-05
5.01387e-05
4.82668e-05
4.6326e-05
4.43192e-05
4.22465e-05
4.01121e-05
3.79138e-05
3.56549e-05
3.33337e-05
3.09497e-05
2.85011e-05
2.5985e-05
2.33965e-05
2.07278e-05
1.79754e-05
1.51321e-05
1.21977e-05
9.17578e-06
6.08018e-06
2.93282e-06
-2.41089e-07
-3.41307e-06
-6.55177e-06
-9.64715e-06
-1.26698e-05
-1.56248e-05
-1.84826e-05
-2.12514e-05
-2.39045e-05
-2.64372e-05
-2.88336e-05
-3.1072e-05
-3.31363e-05
-3.50001e-05
-3.66366e-05
-3.80265e-05
-3.9121e-05
-3.99064e-05
-4.03572e-05
-4.04025e-05
-4.0099e-05
-3.93202e-05
-3.81267e-05
-3.64639e-05
-3.45752e-05
-3.18391e-05
-2.90727e-05
-2.56667e-05
-2.2037e-05
-1.80353e-05
-1.37347e-05
-9.25115e-06
-4.57104e-06
2.07863e-07
5.04467e-06
9.88014e-06
1.46725e-05
1.93726e-05
2.39434e-05
2.83554e-05
3.25751e-05
3.65906e-05
4.03751e-05
4.39258e-05
4.72296e-05
5.02879e-05
5.30952e-05
5.56616e-05
5.79819e-05
6.00696e-05
6.19269e-05
6.35645e-05
6.49888e-05
6.62098e-05
6.72361e-05
6.80768e-05
6.87408e-05
6.92366e-05
6.95726e-05
6.97574e-05
6.97969e-05
6.97001e-05
6.94727e-05
6.91215e-05
6.86514e-05
6.80681e-05
6.73773e-05
6.65817e-05
6.56879e-05
6.46972e-05
6.36146e-05
6.2442e-05
6.11835e-05
5.98406e-05
5.84165e-05
5.69126e-05
5.5332e-05
5.36756e-05
5.19459e-05
5.01441e-05
4.82728e-05
4.63326e-05
4.43263e-05
4.22543e-05
4.01203e-05
3.79226e-05
3.56641e-05
3.33435e-05
3.09601e-05
2.85122e-05
2.59969e-05
2.34094e-05
2.07422e-05
1.79916e-05
1.51507e-05
1.22191e-05
9.20045e-06
6.10824e-06
2.9641e-06
-2.07196e-07
-3.37742e-06
-6.5152e-06
-9.61067e-06
-1.26341e-05
-1.55906e-05
-1.84502e-05
-2.12214e-05
-2.38771e-05
-2.64126e-05
-2.8812e-05
-3.10533e-05
-3.31205e-05
-3.49872e-05
-3.66263e-05
-3.8019e-05
-3.91158e-05
-3.99034e-05
-4.03564e-05
-4.04033e-05
-4.01017e-05
-3.93245e-05
-3.81325e-05
-3.6469e-05
-3.45869e-05
-3.18515e-05
-2.90894e-05
-2.56849e-05
-2.20568e-05
-1.80571e-05
-1.37577e-05
-9.27448e-06
-4.5942e-06
1.8532e-07
5.0229e-06
9.85927e-06
1.46524e-05
1.93535e-05
2.39254e-05
2.83385e-05
3.25592e-05
3.65756e-05
4.03608e-05
4.39119e-05
4.7216e-05
5.02745e-05
5.3082e-05
5.56485e-05
5.79691e-05
6.00571e-05
6.19148e-05
6.35529e-05
6.49777e-05
6.61993e-05
6.72263e-05
6.80677e-05
6.87323e-05
6.92288e-05
6.95656e-05
6.97511e-05
6.97913e-05
6.96953e-05
6.94687e-05
6.91182e-05
6.86488e-05
6.80663e-05
6.73761e-05
6.65813e-05
6.56883e-05
6.46983e-05
6.36164e-05
6.24445e-05
6.11868e-05
5.98446e-05
5.84212e-05
5.6918e-05
5.53382e-05
5.36825e-05
5.19535e-05
5.01524e-05
4.82817e-05
4.63422e-05
4.43366e-05
4.22652e-05
4.01319e-05
3.79348e-05
3.5677e-05
3.33569e-05
3.09742e-05
2.8527e-05
2.60126e-05
2.34261e-05
2.07603e-05
1.80114e-05
1.51727e-05
1.22437e-05
9.2282e-06
6.13931e-06
2.99843e-06
-1.70092e-07
-3.33829e-06
-6.47488e-06
-9.57016e-06
-1.2594e-05
-1.5552e-05
-1.84135e-05
-2.11871e-05
-2.38456e-05
-2.63842e-05
-2.8787e-05
-3.10318e-05
-3.31024e-05
-3.49726e-05
-3.6615e-05
-3.8011e-05
-3.91111e-05
-3.99014e-05
-4.03573e-05
-4.04062e-05
-4.0107e-05
-3.9332e-05
-3.81418e-05
-3.64778e-05
-3.46033e-05
-3.18693e-05
-2.91123e-05
-2.57094e-05
-2.20832e-05
-1.80857e-05
-1.37877e-05
-9.3048e-06
-4.62431e-06
1.5602e-07
4.99467e-06
9.8323e-06
1.46267e-05
1.93293e-05
2.39028e-05
2.83175e-05
3.25398e-05
3.65576e-05
4.0344e-05
4.38962e-05
4.72011e-05
5.02602e-05
5.30682e-05
5.56353e-05
5.79565e-05
6.00451e-05
6.19034e-05
6.35423e-05
6.49679e-05
6.61903e-05
6.72181e-05
6.80603e-05
6.87257e-05
6.92231e-05
6.95606e-05
6.97469e-05
6.9788e-05
6.96928e-05
6.9467e-05
6.91172e-05
6.86487e-05
6.80669e-05
6.73776e-05
6.65835e-05
6.56913e-05
6.4702e-05
6.36209e-05
6.24498e-05
6.11929e-05
5.98514e-05
5.84288e-05
5.69264e-05
5.53473e-05
5.36923e-05
5.19641e-05
5.01637e-05
4.82939e-05
4.63551e-05
4.43502e-05
4.22796e-05
4.01469e-05
3.79505e-05
3.56933e-05
3.33738e-05
3.09918e-05
2.85452e-05
2.60315e-05
2.34459e-05
2.07811e-05
1.80336e-05
1.51967e-05
1.22701e-05
9.25744e-06
6.17172e-06
3.0341e-06
-1.3152e-07
-3.29748e-06
-6.43266e-06
-9.5275e-06
-1.25517e-05
-1.5511e-05
-1.83744e-05
-2.11506e-05
-2.38122e-05
-2.63543e-05
-2.87608e-05
-3.10095e-05
-3.30842e-05
-3.49583e-05
-3.66046e-05
-3.80045e-05
-3.91084e-05
-3.99019e-05
-4.0361e-05
-4.04127e-05
-4.01159e-05
-3.93437e-05
-3.81558e-05
-3.64914e-05
-3.46252e-05
-3.18935e-05
-2.91422e-05
-2.57412e-05
-2.21171e-05
-1.81217e-05
-1.38254e-05
-9.3426e-06
-4.66163e-06
1.19898e-07
4.96012e-06
9.79961e-06
1.4596e-05
1.93007e-05
2.38765e-05
2.82936e-05
3.25181e-05
3.65381e-05
4.03264e-05
4.38801e-05
4.71863e-05
5.02465e-05
5.30555e-05
5.56235e-05
5.79455e-05
6.0035e-05
6.18943e-05
6.3534e-05
6.49606e-05
6.61839e-05
6.72125e-05
6.80556e-05
6.8722e-05
6.92202e-05
6.95586e-05
6.97457e-05
6.97877e-05
6.96933e-05
6.94683e-05
6.91193e-05
6.86516e-05
6.80707e-05
6.73821e-05
6.65888e-05
6.56973e-05
6.47089e-05
6.36285e-05
6.24582e-05
6.1202e-05
5.98614e-05
5.84395e-05
5.69379e-05
5.53595e-05
5.37054e-05
5.19779e-05
5.01783e-05
4.83092e-05
4.63712e-05
4.43671e-05
4.22972e-05
4.01652e-05
3.79695e-05
3.57128e-05
3.33939e-05
3.10123e-05
2.85662e-05
2.60529e-05
2.34678e-05
2.08037e-05
1.80571e-05
1.52216e-05
1.2297e-05
9.28686e-06
6.2042e-06
3.06986e-06
-9.27184e-08
-3.25619e-06
-6.38975e-06
-9.48395e-06
-1.25085e-05
-1.5469e-05
-1.83345e-05
-2.11133e-05
-2.37783e-05
-2.63242e-05
-2.87349e-05
-3.0988e-05
-3.3067e-05
-3.49456e-05
-3.65964e-05
-3.80006e-05
-3.91088e-05
-3.99061e-05
-4.03689e-05
-4.04237e-05
-4.01298e-05
-3.93608e-05
-3.81756e-05
-3.6511e-05
-3.46537e-05
-3.19252e-05
-2.91797e-05
-2.57808e-05
-2.21589e-05
-1.81655e-05
-1.38707e-05
-9.38767e-06
-4.70576e-06
7.75794e-08
4.92009e-06
9.76223e-06
1.45613e-05
1.92691e-05
2.3848e-05
2.82682e-05
3.24959e-05
3.65186e-05
4.03094e-05
4.38651e-05
4.71731e-05
5.02348e-05
5.30451e-05
5.56143e-05
5.79374e-05
6.0028e-05
6.18883e-05
6.35291e-05
6.49567e-05
6.61809e-05
6.72106e-05
6.80546e-05
6.87218e-05
6.92209e-05
6.95602e-05
6.97481e-05
6.97909e-05
6.96973e-05
6.94731e-05
6.91249e-05
6.8658e-05
6.80778e-05
6.73899e-05
6.65975e-05
6.57067e-05
6.4719e-05
6.36394e-05
6.24699e-05
6.12144e-05
5.98746e-05
5.84534e-05
5.69526e-05
5.5375e-05
5.37217e-05
5.1995e-05
5.01962e-05
4.83278e-05
4.63906e-05
4.43871e-05
4.2318e-05
4.01866e-05
3.79914e-05
3.57353e-05
3.34166e-05
3.10354e-05
2.85894e-05
2.60761e-05
2.3491e-05
2.08272e-05
1.8081e-05
1.52464e-05
1.23234e-05
9.31558e-06
6.23589e-06
3.1049e-06
-5.4439e-08
-3.21517e-06
-6.34689e-06
-9.44021e-06
-1.2465e-05
-1.54266e-05
-1.82943e-05
-2.1076e-05
-2.37446e-05
-2.62946e-05
-2.87098e-05
-3.09677e-05
-3.30516e-05
-3.49352e-05
-3.65909e-05
-3.8e-05
-3.9113e-05
-3.99147e-05
-4.03815e-05
-4.04402e-05
-4.01492e-05
-3.9384e-05
-3.82019e-05
-3.65374e-05
-3.46891e-05
-3.19645e-05
-2.92249e-05
-2.58282e-05
-2.22083e-05
-1.82166e-05
-1.39232e-05
-9.43927e-06
-4.75577e-06
3.01542e-08
4.87579e-06
9.72143e-06
1.45241e-05
1.92357e-05
2.38186e-05
2.82427e-05
3.24742e-05
3.65003e-05
4.02942e-05
4.38525e-05
4.71627e-05
5.02262e-05
5.30381e-05
5.56086e-05
5.79331e-05
6.00249e-05
6.18864e-05
6.35283e-05
6.49569e-05
6.61822e-05
6.72128e-05
6.80577e-05
6.87258e-05
6.92257e-05
6.95658e-05
6.97545e-05
6.97981e-05
6.97052e-05
6.94818e-05
6.91342e-05
6.8668e-05
6.80886e-05
6.74014e-05
6.66097e-05
6.57196e-05
6.47326e-05
6.36538e-05
6.2485e-05
6.12303e-05
5.98911e-05
5.84707e-05
5.69707e-05
5.53938e-05
5.37412e-05
5.20153e-05
5.02172e-05
4.83496e-05
4.6413e-05
4.44103e-05
4.23418e-05
4.02108e-05
3.80161e-05
3.57602e-05
3.34417e-05
3.10604e-05
2.86142e-05
2.61005e-05
2.35149e-05
2.08507e-05
1.81045e-05
1.52704e-05
1.23487e-05
9.34306e-06
6.26638e-06
3.13886e-06
-1.6983e-08
-3.17467e-06
-6.30433e-06
-9.39652e-06
-1.24214e-05
-1.53842e-05
-1.82541e-05
-2.10388e-05
-2.37113e-05
-2.62658e-05
-2.86859e-05
-3.0949e-05
-3.30383e-05
-3.49273e-05
-3.65885e-05
-3.8003e-05
-3.91215e-05
-3.9928e-05
-4.03994e-05
-4.04626e-05
-4.01748e-05
-3.94139e-05
-3.82352e-05
-3.65712e-05
-3.47319e-05
-3.20115e-05
-2.92774e-05
-2.58829e-05
-2.22648e-05
-1.82743e-05
-1.39821e-05
-9.49647e-06
-4.81066e-06
-2.13354e-08
4.82827e-06
9.67829e-06
1.44854e-05
1.92017e-05
2.37893e-05
2.82181e-05
3.2454e-05
3.64842e-05
4.02817e-05
4.38429e-05
4.71557e-05
5.02213e-05
5.30351e-05
5.56071e-05
5.79331e-05
6.00262e-05
6.18889e-05
6.35319e-05
6.49616e-05
6.61879e-05
6.72194e-05
6.80652e-05
6.87342e-05
6.92349e-05
6.95758e-05
6.97651e-05
6.98095e-05
6.97172e-05
6.94944e-05
6.91475e-05
6.8682e-05
6.81032e-05
6.74167e-05
6.66257e-05
6.57362e-05
6.47499e-05
6.36717e-05
6.25036e-05
6.12496e-05
5.99112e-05
5.84915e-05
5.69922e-05
5.5416e-05
5.37641e-05
5.20389e-05
5.02415e-05
4.83745e-05
4.64386e-05
4.44364e-05
4.23684e-05
4.02378e-05
3.80432e-05
3.57873e-05
3.34686e-05
3.10869e-05
2.864e-05
2.61255e-05
2.35389e-05
2.08739e-05
1.81272e-05
1.52933e-05
1.23727e-05
9.36921e-06
6.29564e-06
3.17184e-06
1.97866e-08
-3.13452e-06
-6.26186e-06
-9.35268e-06
-1.23777e-05
-1.53415e-05
-1.82138e-05
-2.10016e-05
-2.36782e-05
-2.62376e-05
-2.8663e-05
-3.09318e-05
-3.3027e-05
-3.49221e-05
-3.65893e-05
-3.80097e-05
-3.91343e-05
-3.99464e-05
-4.04227e-05
-4.0491e-05
-4.02067e-05
-3.94506e-05
-3.82758e-05
-3.66122e-05
-3.47818e-05
-3.20658e-05
-2.93366e-05
-2.59444e-05
-2.23278e-05
-1.83381e-05
-1.40464e-05
-9.55849e-06
-4.86966e-06
-7.61178e-08
4.7783e-06
9.63353e-06
1.44458e-05
1.91676e-05
2.37608e-05
2.81949e-05
3.2436e-05
3.64706e-05
4.02722e-05
4.38369e-05
4.71526e-05
5.02206e-05
5.30364e-05
5.56102e-05
5.79378e-05
6.00323e-05
6.18963e-05
6.35405e-05
6.49713e-05
6.61985e-05
6.7231e-05
6.80776e-05
6.87473e-05
6.92487e-05
6.95903e-05
6.97803e-05
6.98252e-05
6.97336e-05
6.95114e-05
6.9165e-05
6.87001e-05
6.81219e-05
6.74359e-05
6.66455e-05
6.57566e-05
6.47709e-05
6.36934e-05
6.25259e-05
6.12725e-05
5.99348e-05
5.85157e-05
5.70171e-05
5.54416e-05
5.37904e-05
5.20658e-05
5.0269e-05
4.84026e-05
4.64671e-05
4.44653e-05
4.23977e-05
4.02671e-05
3.80726e-05
3.58164e-05
3.34971e-05
3.11146e-05
2.86666e-05
2.61508e-05
2.35628e-05
2.08966e-05
1.81491e-05
1.53151e-05
1.23956e-05
9.39435e-06
6.32412e-06
3.20433e-06
5.64129e-08
-3.09418e-06
-6.21893e-06
-9.30816e-06
-1.23332e-05
-1.5298e-05
-1.81729e-05
-2.0964e-05
-2.36451e-05
-2.62097e-05
-2.86408e-05
-3.09159e-05
-3.30175e-05
-3.49192e-05
-3.65932e-05
-3.80201e-05
-3.91514e-05
-3.99696e-05
-4.04514e-05
-4.05254e-05
-4.02449e-05
-3.94939e-05
-3.83233e-05
-3.66605e-05
-3.48385e-05
-3.2127e-05
-2.94022e-05
-2.60123e-05
-2.23968e-05
-1.84074e-05
-1.41159e-05
-9.62492e-06
-4.93237e-06
-1.33808e-07
4.72623e-06
9.5875e-06
1.44059e-05
1.91339e-05
2.37333e-05
2.81735e-05
3.24203e-05
3.64601e-05
4.02663e-05
4.38348e-05
4.71537e-05
5.02244e-05
5.30425e-05
5.56181e-05
5.79474e-05
6.00434e-05
6.19088e-05
6.35542e-05
6.4986e-05
6.62143e-05
6.72476e-05
6.8095e-05
6.87654e-05
6.92675e-05
6.96096e-05
6.98001e-05
6.98456e-05
6.97545e-05
6.95328e-05
6.91869e-05
6.87225e-05
6.81447e-05
6.74593e-05
6.66694e-05
6.5781e-05
6.47959e-05
6.37189e-05
6.2552e-05
6.12992e-05
5.9962e-05
5.85436e-05
5.70456e-05
5.54706e-05
5.382e-05
5.20959e-05
5.02996e-05
4.84337e-05
4.64986e-05
4.4497e-05
4.24295e-05
4.02988e-05
3.81039e-05
3.58471e-05
3.35269e-05
3.11432e-05
2.86937e-05
2.61762e-05
2.35865e-05
2.09188e-05
1.81703e-05
1.53364e-05
1.24179e-05
9.4192e-06
6.3526e-06
3.23713e-06
9.36882e-08
-3.05288e-06
-6.17485e-06
-9.26233e-06
-1.22874e-05
-1.52532e-05
-1.81308e-05
-2.09256e-05
-2.36115e-05
-2.61818e-05
-2.86191e-05
-3.0901e-05
-3.30096e-05
-3.49186e-05
-3.66e-05
-3.8034e-05
-3.91727e-05
-3.99977e-05
-4.04853e-05
-4.05656e-05
-4.02891e-05
-3.95436e-05
-3.83774e-05
-3.67156e-05
-3.49016e-05
-3.2195e-05
-2.9474e-05
-2.60864e-05
-2.24717e-05
-1.8482e-05
-1.41903e-05
-9.69564e-06
-4.99866e-06
-1.94305e-07
4.67217e-06
9.54029e-06
1.43655e-05
1.91006e-05
2.3707e-05
2.81539e-05
3.24072e-05
3.64526e-05
4.02639e-05
4.38367e-05
4.71592e-05
5.02328e-05
5.30535e-05
5.56312e-05
5.79623e-05
6.00599e-05
6.19267e-05
6.35733e-05
6.50062e-05
6.62354e-05
6.72695e-05
6.81176e-05
6.87886e-05
6.92913e-05
6.96339e-05
6.98249e-05
6.98709e-05
6.97801e-05
6.95588e-05
6.92133e-05
6.87493e-05
6.8172e-05
6.74869e-05
6.66975e-05
6.58095e-05
6.48249e-05
6.37484e-05
6.2582e-05
6.13297e-05
5.9993e-05
5.85751e-05
5.70776e-05
5.55032e-05
5.3853e-05
5.21294e-05
5.03335e-05
4.84678e-05
4.65329e-05
4.45314e-05
4.24638e-05
4.03326e-05
3.81372e-05
3.58794e-05
3.35579e-05
3.11727e-05
2.87215e-05
2.62021e-05
2.36104e-05
2.09412e-05
1.81917e-05
1.53578e-05
1.24407e-05
9.44466e-06
6.38197e-06
3.27109e-06
1.32387e-07
-3.00994e-06
-6.12901e-06
-9.21466e-06
-1.22398e-05
-1.52068e-05
-1.80874e-05
-2.0886e-05
-2.35772e-05
-2.61536e-05
-2.85977e-05
-3.0887e-05
-3.30033e-05
-3.49201e-05
-3.66095e-05
-3.80513e-05
-3.9198e-05
-4.00303e-05
-4.05243e-05
-4.06113e-05
-4.03391e-05
-3.95995e-05
-3.8438e-05
-3.67774e-05
-3.49708e-05
-3.22699e-05
-2.9552e-05
-2.61667e-05
-2.25525e-05
-1.85622e-05
-1.42699e-05
-9.77079e-06
-5.06869e-06
-2.57739e-07
4.61599e-06
9.4918e-06
1.43247e-05
1.90677e-05
2.36819e-05
2.81363e-05
3.23967e-05
3.64484e-05
4.02653e-05
4.38427e-05
4.71693e-05
5.02461e-05
5.30696e-05
5.56495e-05
5.79826e-05
6.00818e-05
6.19501e-05
6.3598e-05
6.5032e-05
6.62621e-05
6.72969e-05
6.81457e-05
6.88173e-05
6.93205e-05
6.96635e-05
6.98548e-05
6.99011e-05
6.98107e-05
6.95897e-05
6.92444e-05
6.87807e-05
6.82037e-05
6.7519e-05
6.673e-05
6.58422e-05
6.48581e-05
6.37819e-05
6.2616e-05
6.13641e-05
6.00279e-05
5.86104e-05
5.71133e-05
5.55393e-05
5.38895e-05
5.21661e-05
5.03705e-05
4.85049e-05
4.65701e-05
4.45684e-05
4.25005e-05
4.03687e-05
3.81724e-05
3.59134e-05
3.35905e-05
3.12036e-05
2.87504e-05
2.62289e-05
2.36352e-05
2.09644e-05
1.8214e-05
1.53803e-05
1.24647e-05
9.47155e-06
6.41297e-06
3.30687e-06
1.73062e-07
-2.96491e-06
-6.08102e-06
-9.16484e-06
-1.21901e-05
-1.51585e-05
-1.80423e-05
-2.08452e-05
-2.3542e-05
-2.61251e-05
-2.85765e-05
-3.08738e-05
-3.29983e-05
-3.49237e-05
-3.66218e-05
-3.80719e-05
-3.92273e-05
-4.00675e-05
-4.05684e-05
-4.06627e-05
-4.03949e-05
-3.96615e-05
-3.8505e-05
-3.68459e-05
-3.5046e-05
-3.2352e-05
-2.96366e-05
-2.62535e-05
-2.26396e-05
-1.86483e-05
-1.43548e-05
-9.85067e-06
-5.14275e-06
-3.24389e-07
4.55745e-06
9.44183e-06
1.42833e-05
1.9035e-05
2.36579e-05
2.81205e-05
3.23888e-05
3.64474e-05
4.02705e-05
4.3853e-05
4.7184e-05
5.02644e-05
5.3091e-05
5.56732e-05
5.80085e-05
6.01095e-05
6.19793e-05
6.36285e-05
6.50636e-05
6.62946e-05
6.73302e-05
6.81795e-05
6.88516e-05
6.93551e-05
6.96984e-05
6.989e-05
6.99366e-05
6.98463e-05
6.96255e-05
6.92804e-05
6.88169e-05
6.82402e-05
6.75556e-05
6.67669e-05
6.58794e-05
6.48955e-05
6.38197e-05
6.26541e-05
6.14025e-05
6.00667e-05
5.86495e-05
5.71528e-05
5.5579e-05
5.39294e-05
5.22063e-05
5.04108e-05
4.85452e-05
4.66103e-05
4.46083e-05
4.25398e-05
4.04072e-05
3.82099e-05
3.59496e-05
3.3625e-05
3.12361e-05
2.87809e-05
2.62572e-05
2.36615e-05
2.09891e-05
1.82379e-05
1.54045e-05
1.24905e-05
9.50042e-06
6.44608e-06
3.34485e-06
2.16015e-07
-2.91756e-06
-6.03072e-06
-9.11277e-06
-1.21384e-05
-1.51082e-05
-1.79956e-05
-2.0803e-05
-2.3506e-05
-2.60962e-05
-2.85555e-05
-3.08614e-05
-3.29948e-05
-3.49293e-05
-3.66369e-05
-3.8096e-05
-3.92606e-05
-4.01093e-05
-4.06176e-05
-4.07197e-05
-4.04567e-05
-3.97299e-05
-3.85785e-05
-3.69213e-05
-3.51276e-05
-3.24416e-05
-2.97281e-05
-2.63474e-05
-2.27334e-05
-1.87406e-05
-1.44456e-05
-9.93573e-06
-5.22126e-06
-3.9464e-07
4.49621e-06
9.39007e-06
1.42411e-05
1.90024e-05
2.36348e-05
2.81065e-05
3.23834e-05
3.64495e-05
4.02795e-05
4.38677e-05
4.72034e-05
5.02878e-05
5.31177e-05
5.57025e-05
5.80402e-05
6.01431e-05
6.20146e-05
6.3665e-05
6.51012e-05
6.63331e-05
6.73693e-05
6.82192e-05
6.88917e-05
6.93955e-05
6.9739e-05
6.99307e-05
6.99774e-05
6.98872e-05
6.96665e-05
6.93215e-05
6.8858e-05
6.82814e-05
6.75969e-05
6.68084e-05
6.5921e-05
6.49374e-05
6.38617e-05
6.26964e-05
6.14451e-05
6.01095e-05
5.86926e-05
5.71961e-05
5.56225e-05
5.39731e-05
5.225e-05
5.04545e-05
4.85888e-05
4.66536e-05
4.46511e-05
4.2582e-05
4.04485e-05
3.825e-05
3.59881e-05
3.36618e-05
3.12709e-05
2.88135e-05
2.62876e-05
2.36899e-05
2.1016e-05
1.8264e-05
1.54309e-05
1.25186e-05
9.53162e-06
6.48157e-06
3.38523e-06
2.61388e-07
-2.8678e-06
-5.97805e-06
-9.05842e-06
-1.20845e-05
-1.5056e-05
-1.79473e-05
-2.07596e-05
-2.34692e-05
-2.6067e-05
-2.85347e-05
-3.08498e-05
-3.29928e-05
-3.49372e-05
-3.66548e-05
-3.81236e-05
-3.92982e-05
-4.01561e-05
-4.06723e-05
-4.07826e-05
-4.05249e-05
-3.98049e-05
-3.8659e-05
-3.70041e-05
-3.5216e-05
-3.25395e-05
-2.98271e-05
-2.64487e-05
-2.28345e-05
-1.88399e-05
-1.45428e-05
-1.00265e-05
-5.30474e-06
-4.68962e-07
4.43184e-06
9.33614e-06
1.41977e-05
1.89695e-05
2.36124e-05
2.8094e-05
3.23804e-05
3.64549e-05
4.02923e-05
4.38867e-05
4.72278e-05
5.03164e-05
5.315e-05
5.57377e-05
5.80779e-05
6.01828e-05
6.20559e-05
6.37078e-05
6.5145e-05
6.63777e-05
6.74146e-05
6.8265e-05
6.89377e-05
6.94417e-05
6.97854e-05
6.99771e-05
7.00238e-05
6.99335e-05
6.97127e-05
6.93677e-05
6.89042e-05
6.83275e-05
6.76431e-05
6.68546e-05
6.59673e-05
6.49837e-05
6.39082e-05
6.27431e-05
6.14919e-05
6.01565e-05
5.87397e-05
5.72434e-05
5.56699e-05
5.40205e-05
5.22974e-05
5.05018e-05
4.86359e-05
4.67003e-05
4.46973e-05
4.26274e-05
4.04928e-05
3.8293e-05
3.60295e-05
3.37013e-05
3.13084e-05
2.88487e-05
2.63205e-05
2.37207e-05
2.10453e-05
1.82925e-05
1.54598e-05
1.25492e-05
9.56535e-06
6.51958e-06
3.42813e-06
3.09249e-07
-2.8156e-06
-5.923e-06
-9.00178e-06
-1.20285e-05
-1.50019e-05
-1.78973e-05
-2.07149e-05
-2.34315e-05
-2.60375e-05
-2.85143e-05
-3.08392e-05
-3.29924e-05
-3.49474e-05
-3.66758e-05
-3.8155e-05
-3.93402e-05
-4.0208e-05
-4.07327e-05
-4.08519e-05
-4.05998e-05
-3.9887e-05
-3.87468e-05
-3.70947e-05
-3.53116e-05
-3.2646e-05
-2.99343e-05
-2.65583e-05
-2.29436e-05
-1.89467e-05
-1.46471e-05
-1.01236e-05
-5.39374e-06
-5.47878e-07
4.36387e-06
9.27966e-06
1.41527e-05
1.89362e-05
2.35905e-05
2.80831e-05
3.23798e-05
3.64633e-05
4.03089e-05
4.39101e-05
4.7257e-05
5.03503e-05
5.3188e-05
5.57787e-05
5.81217e-05
6.02287e-05
6.21037e-05
6.37569e-05
6.51953e-05
6.64288e-05
6.74663e-05
6.8317e-05
6.89899e-05
6.9494e-05
6.98377e-05
7.00292e-05
7.00758e-05
6.99854e-05
6.97644e-05
6.94192e-05
6.89556e-05
6.83788e-05
6.76942e-05
6.69057e-05
6.60183e-05
6.50348e-05
6.39593e-05
6.27942e-05
6.15431e-05
6.02078e-05
5.87911e-05
5.72948e-05
5.57213e-05
5.4072e-05
5.23488e-05
5.0553e-05
4.86867e-05
4.67507e-05
4.4747e-05
4.26763e-05
4.05405e-05
3.83393e-05
3.60741e-05
3.37439e-05
3.13487e-05
2.88867e-05
2.63562e-05
2.37542e-05
2.10773e-05
1.83238e-05
1.54914e-05
1.25825e-05
9.60173e-06
6.56021e-06
3.47361e-06
3.5963e-07
-2.76095e-06
-5.86558e-06
-8.94289e-06
-1.19704e-05
-1.4946e-05
-1.78458e-05
-2.06691e-05
-2.33931e-05
-2.60077e-05
-2.84942e-05
-3.08296e-05
-3.29938e-05
-3.49601e-05
-3.67001e-05
-3.81905e-05
-3.93871e-05
-4.02654e-05
-4.07994e-05
-4.0928e-05
-4.06819e-05
-3.99768e-05
-3.88427e-05
-3.71937e-05
-3.54151e-05
-3.27621e-05
-3.00505e-05
-2.66768e-05
-2.30614e-05
-1.90618e-05
-1.47591e-05
-1.02278e-05
-5.48892e-06
-6.31964e-07
4.2918e-06
9.22016e-06
1.41059e-05
1.89021e-05
2.35689e-05
2.80734e-05
3.23814e-05
3.64749e-05
4.03294e-05
4.39381e-05
4.72912e-05
5.03897e-05
5.32318e-05
5.58258e-05
5.81718e-05
6.02811e-05
6.2158e-05
6.38127e-05
6.52522e-05
6.64865e-05
6.75245e-05
6.83755e-05
6.90486e-05
6.95526e-05
6.98961e-05
7.00875e-05
7.01338e-05
7.00431e-05
6.98218e-05
6.94762e-05
6.90124e-05
6.84353e-05
6.77505e-05
6.69619e-05
6.60743e-05
6.50907e-05
6.40152e-05
6.285e-05
6.15989e-05
6.02636e-05
5.88469e-05
5.73507e-05
5.57771e-05
5.41277e-05
5.24043e-05
5.06082e-05
4.87415e-05
4.6805e-05
4.48005e-05
4.27288e-05
4.05917e-05
3.8389e-05
3.61219e-05
3.37897e-05
3.13922e-05
2.89277e-05
2.63948e-05
2.37907e-05
2.11122e-05
1.83578e-05
1.55258e-05
1.26185e-05
9.64086e-06
6.60353e-06
3.5217e-06
4.12546e-07
-2.70386e-06
-5.80581e-06
-8.88178e-06
-1.19102e-05
-1.48882e-05
-1.77927e-05
-2.0622e-05
-2.3354e-05
-2.59779e-05
-2.84746e-05
-3.08213e-05
-3.29972e-05
-3.49756e-05
-3.67279e-05
-3.82303e-05
-3.94392e-05
-4.03289e-05
-4.08727e-05
-4.10114e-05
-4.07719e-05
-4.00749e-05
-3.89471e-05
-3.73018e-05
-3.55273e-05
-3.28884e-05
-3.01764e-05
-2.6805e-05
-2.31886e-05
-1.9186e-05
-1.48796e-05
-1.03397e-05
-5.59092e-06
-7.21814e-07
4.21511e-06
9.15722e-06
1.40568e-05
1.88669e-05
2.35474e-05
2.80649e-05
3.23852e-05
3.64896e-05
4.03537e-05
4.39705e-05
4.73306e-05
5.04347e-05
5.32816e-05
5.58793e-05
5.82284e-05
6.03402e-05
6.22191e-05
6.38753e-05
6.53159e-05
6.6551e-05
6.75895e-05
6.84408e-05
6.91138e-05
6.96177e-05
6.9961e-05
7.0152e-05
7.01979e-05
7.01068e-05
6.9885e-05
6.9539e-05
6.90747e-05
6.84973e-05
6.78122e-05
6.70233e-05
6.61355e-05
6.51517e-05
6.40759e-05
6.29107e-05
6.16595e-05
6.03241e-05
5.89074e-05
5.7411e-05
5.58373e-05
5.41877e-05
5.24641e-05
5.06677e-05
4.88004e-05
4.68632e-05
4.48578e-05
4.27851e-05
4.06465e-05
3.84422e-05
3.61732e-05
3.38388e-05
3.14389e-05
2.89719e-05
2.64365e-05
2.38301e-05
2.115e-05
1.83948e-05
1.55631e-05
1.26575e-05
9.68279e-06
6.64957e-06
3.57242e-06
4.67988e-07
-2.64435e-06
-5.74373e-06
-8.81851e-06
-1.18481e-05
-1.48286e-05
-1.77382e-05
-2.0574e-05
-2.33144e-05
-2.59482e-05
-2.84558e-05
-3.08144e-05
-3.30029e-05
-3.49941e-05
-3.67597e-05
-3.8275e-05
-3.9497e-05
-4.03989e-05
-4.09533e-05
-4.11028e-05
-4.08704e-05
-4.01819e-05
-3.90609e-05
-3.74199e-05
-3.5649e-05
-3.30257e-05
-3.0313e-05
-2.69438e-05
-2.33262e-05
-1.93202e-05
-1.50095e-05
-1.04601e-05
-5.70044e-06
-8.18046e-07
4.13325e-06