/*--------------------------------*- C++ -*----------------------------------*\
| =========                 |                                                 |
| \\      /  F ield         | OpenFOAM: The Open Source CFD Toolbox           |
|  \\    /   O peration     | Version:  2.1.1                                 |
|   \\  /    A nd           | Web:      www.OpenFOAM.org                      |
|    \\/     M anipulation  |                                                 |
\*---------------------------------------------------------------------------*/
FoamFile
{
    version     2.0;
    format      ascii;
    class       volSymmTensorField;
    location    "0";
    object      TauDNS;
}
// * * * * * * * * * * * * * * * * * * * * * * * * * * * * * * * * * * * * * //

dimensions      [0 2 -2 0 0 0 0];

internalField   nonuniform List<symmTensor> 
14751
(
(4.818111256808933663e-07 4.976770580462027179e-09 0.000000000000000000e+00 3.966581082310552975e-10 0.000000000000000000e+00 1.684705439692685731e-07)
(4.803837997527108333e-07 5.092217418693745022e-09 0.000000000000000000e+00 4.054035360368200737e-10 0.000000000000000000e+00 1.713523257413663538e-07)
(4.788356817614690882e-07 5.204900997027836657e-09 0.000000000000000000e+00 4.142874332413786791e-10 0.000000000000000000e+00 1.739466986992469851e-07)
(4.772437324414615969e-07 5.316246587287890282e-09 0.000000000000000000e+00 4.252353247483858547e-10 0.000000000000000000e+00 1.765005816307283294e-07)
(4.757805047638135132e-07 5.423802294120250626e-09 0.000000000000000000e+00 4.365058262927799909e-10 0.000000000000000000e+00 1.789246188473659765e-07)
(4.743750621370196735e-07 5.529069604167445209e-09 0.000000000000000000e+00 4.479442651849855859e-10 0.000000000000000000e+00 1.812113547279720978e-07)
(4.730771718789556138e-07 5.621673539008748255e-09 0.000000000000000000e+00 4.596541766960865386e-10 0.000000000000000000e+00 1.835588261689065358e-07)
(4.718488324919525319e-07 5.712006568736581113e-09 0.000000000000000000e+00 4.733226073406913824e-10 0.000000000000000000e+00 1.859584267771456750e-07)
(4.709862668947383905e-07 5.804354419412519333e-09 0.000000000000000000e+00 4.871644365488949818e-10 0.000000000000000000e+00 1.883983596486075344e-07)
(4.699981053325300023e-07 5.901382448155641696e-09 0.000000000000000000e+00 5.025020048394520082e-10 0.000000000000000000e+00 1.908242900575553148e-07)
(4.687809957979649663e-07 5.958999077482987660e-09 0.000000000000000000e+00 5.166786368359173789e-10 0.000000000000000000e+00 1.927926136684569849e-07)
(4.678822995064812396e-07 6.022925435395162414e-09 0.000000000000000000e+00 5.296392245222529494e-10 0.000000000000000000e+00 1.945695973735846707e-07)
(4.670121624636952220e-07 6.073286319233858667e-09 0.000000000000000000e+00 5.439657574228145428e-10 0.000000000000000000e+00 1.962817442439018481e-07)
(4.666205945295835965e-07 6.116835313275159325e-09 0.000000000000000000e+00 5.604914127092963721e-10 0.000000000000000000e+00 1.980892756419091087e-07)
(4.669732478251202360e-07 6.162167731481996690e-09 0.000000000000000000e+00 5.776006055286681461e-10 0.000000000000000000e+00 1.999149321344063595e-07)
(4.677928112343304089e-07 6.222326056949400690e-09 0.000000000000000000e+00 5.956213197946819264e-10 0.000000000000000000e+00 2.018443518312763280e-07)
(4.688314648550838500e-07 6.268934495632232803e-09 0.000000000000000000e+00 6.131065216517306589e-10 0.000000000000000000e+00 2.039579854776374626e-07)
(4.701412794576314475e-07 6.312815576477724621e-09 0.000000000000000000e+00 6.319706097907640110e-10 0.000000000000000000e+00 2.062229452306955563e-07)
(4.716510587533100135e-07 6.364682319203637224e-09 0.000000000000000000e+00 6.510343097995964130e-10 0.000000000000000000e+00 2.085737512545526132e-07)
(4.736490524486362532e-07 6.414330993302584958e-09 0.000000000000000000e+00 6.714998719128181991e-10 0.000000000000000000e+00 2.111725983979028908e-07)
(4.766602669162654963e-07 6.459383523377217602e-09 0.000000000000000000e+00 6.960098478776373678e-10 0.000000000000000000e+00 2.142139479935076893e-07)
(4.805262194188866160e-07 6.548133876858976969e-09 0.000000000000000000e+00 7.223090659805707441e-10 0.000000000000000000e+00 2.171167194606584822e-07)
(4.837032693328072090e-07 6.597954649207329552e-09 0.000000000000000000e+00 7.454170768640135580e-10 0.000000000000000000e+00 2.199023870159754189e-07)
(4.872072849253732520e-07 6.639051691359494522e-09 0.000000000000000000e+00 7.676138802590691582e-10 0.000000000000000000e+00 2.224711824860819857e-07)
(4.910068143071783885e-07 6.699220502972169239e-09 0.000000000000000000e+00 7.904024444325032427e-10 0.000000000000000000e+00 2.252648182170363115e-07)
(4.949215035832550158e-07 6.748891148761254642e-09 0.000000000000000000e+00 8.119860664542903803e-10 0.000000000000000000e+00 2.278169096032129998e-07)
(4.995707450040203578e-07 6.792883243343421205e-09 0.000000000000000000e+00 8.327383262455884647e-10 0.000000000000000000e+00 2.303798357109856248e-07)
(5.053105389264742178e-07 6.866420890321936614e-09 0.000000000000000000e+00 8.631926265684957452e-10 0.000000000000000000e+00 2.336283267480199547e-07)
(5.113160901097864877e-07 6.967502797123904842e-09 0.000000000000000000e+00 8.943149605462820245e-10 0.000000000000000000e+00 2.370869808344457905e-07)
(5.165696871920166538e-07 7.038192746575488103e-09 0.000000000000000000e+00 9.212112843889136043e-10 0.000000000000000000e+00 2.402484521273639439e-07)
(5.222165352628455509e-07 7.098235437238440195e-09 0.000000000000000000e+00 9.474422863949748925e-10 0.000000000000000000e+00 2.435320398545318845e-07)
(5.286340647791372359e-07 7.193782056481554615e-09 0.000000000000000000e+00 9.774385642514170606e-10 0.000000000000000000e+00 2.474498925103371266e-07)
(5.342760369978920670e-07 7.325534209929039454e-09 0.000000000000000000e+00 1.007367662303964281e-09 0.000000000000000000e+00 2.509784709692745685e-07)
(5.396127491295808658e-07 7.393276703957671402e-09 0.000000000000000000e+00 1.038159718927035132e-09 0.000000000000000000e+00 2.544073099294597273e-07)
(5.447152824287327224e-07 7.463473861204047310e-09 0.000000000000000000e+00 1.065494020163583370e-09 0.000000000000000000e+00 2.580877927504410036e-07)
(5.505970920939043024e-07 7.495898483754217926e-09 0.000000000000000000e+00 1.092723572189868138e-09 0.000000000000000000e+00 2.615357950812571852e-07)
(5.577807879005715227e-07 7.575462653219343346e-09 0.000000000000000000e+00 1.123840902792240798e-09 0.000000000000000000e+00 2.646096261551764938e-07)
(5.635669978020647314e-07 7.656854637730407967e-09 0.000000000000000000e+00 1.157660009397321122e-09 0.000000000000000000e+00 2.679023904533731650e-07)
(5.691882759985939482e-07 7.711662758705211410e-09 0.000000000000000000e+00 1.182251823569978935e-09 0.000000000000000000e+00 2.707078086422966759e-07)
(5.736886934324028758e-07 7.747966765607342514e-09 0.000000000000000000e+00 1.204605057931655720e-09 0.000000000000000000e+00 2.725040413434426169e-07)
(5.769033126320530020e-07 7.708458043189145251e-09 0.000000000000000000e+00 1.217487860304991502e-09 0.000000000000000000e+00 2.732822494051928496e-07)
(5.795151784262913754e-07 7.671469252116246832e-09 0.000000000000000000e+00 1.226186466618004313e-09 0.000000000000000000e+00 2.739593844527049526e-07)
(5.822686853980414612e-07 7.628652024241948879e-09 0.000000000000000000e+00 1.232985690135151934e-09 0.000000000000000000e+00 2.745169031014962403e-07)
(5.859704437731256344e-07 7.561639329038237589e-09 0.000000000000000000e+00 1.241785431065813142e-09 0.000000000000000000e+00 2.751014787031747075e-07)
(5.894217490157224517e-07 7.545112855839846624e-09 0.000000000000000000e+00 1.244814300483995051e-09 0.000000000000000000e+00 2.753580326427636530e-07)
(5.917806475121466001e-07 7.480266807159639119e-09 0.000000000000000000e+00 1.246358504371039453e-09 0.000000000000000000e+00 2.750048750213780161e-07)
(5.930186752483140184e-07 7.380572956782348723e-09 0.000000000000000000e+00 1.247941515230319716e-09 0.000000000000000000e+00 2.740777398859204751e-07)
(5.946997656991285996e-07 7.297354891373091590e-09 0.000000000000000000e+00 1.247969338338208356e-09 0.000000000000000000e+00 2.729182556296207731e-07)
(5.971912271995025370e-07 7.234841492874045685e-09 0.000000000000000000e+00 1.246851781399196023e-09 0.000000000000000000e+00 2.711594667001746621e-07)
(5.980010789555029549e-07 7.148557175659897295e-09 0.000000000000000000e+00 1.240160713158621062e-09 0.000000000000000000e+00 2.679277515884285330e-07)
(5.985045014340914562e-07 6.998598984937403245e-09 0.000000000000000000e+00 1.223942387928895164e-09 0.000000000000000000e+00 2.644990521914666841e-07)
(5.985700922908355473e-07 6.888615896634353126e-09 0.000000000000000000e+00 1.212706424142311251e-09 0.000000000000000000e+00 2.621194189223000041e-07)
(5.971179471310888902e-07 6.737719346092969100e-09 0.000000000000000000e+00 1.201329421312009500e-09 0.000000000000000000e+00 2.588881531102036262e-07)
(5.960385243431792912e-07 6.594403772241971657e-09 0.000000000000000000e+00 1.180503526315655263e-09 0.000000000000000000e+00 2.549193019426254473e-07)
(5.943593592939305315e-07 6.441533866854447052e-09 0.000000000000000000e+00 1.151218865948821752e-09 0.000000000000000000e+00 2.510152500445298538e-07)
(5.919894498905172452e-07 6.283930547768473091e-09 0.000000000000000000e+00 1.120676446977664028e-09 0.000000000000000000e+00 2.465837096071286356e-07)
(5.870307978642937472e-07 6.097965177841603113e-09 0.000000000000000000e+00 1.085495460434155324e-09 0.000000000000000000e+00 2.410084498234716115e-07)
(5.815051145397429281e-07 5.886684158551965027e-09 0.000000000000000000e+00 1.058088511019148754e-09 0.000000000000000000e+00 2.361802698826736164e-07)
(5.770883961973391879e-07 5.666363935134085685e-09 0.000000000000000000e+00 1.020574827786169100e-09 0.000000000000000000e+00 2.302721425630063337e-07)
(5.721692326118287203e-07 5.480621133934218966e-09 0.000000000000000000e+00 9.792986799766865683e-10 0.000000000000000000e+00 2.241257300420545551e-07)
(5.671674202954956234e-07 5.316108940426448407e-09 0.000000000000000000e+00 9.403923345153954691e-10 0.000000000000000000e+00 2.180998452378918711e-07)
(5.612899431398528395e-07 5.156344537144835528e-09 0.000000000000000000e+00 9.042159434514905301e-10 0.000000000000000000e+00 2.119620287633508282e-07)
(5.551852834426942249e-07 4.952119980765972526e-09 0.000000000000000000e+00 8.602899215847333892e-10 0.000000000000000000e+00 2.062154794472050349e-07)
(5.498304955103300348e-07 4.741241334516145983e-09 0.000000000000000000e+00 8.160771202074940490e-10 0.000000000000000000e+00 2.003032574555315360e-07)
(5.442188308042489191e-07 4.622338946117217990e-09 0.000000000000000000e+00 7.824896731392013293e-10 0.000000000000000000e+00 1.954826723062379648e-07)
(5.378756991971688471e-07 4.426935474392001800e-09 0.000000000000000000e+00 7.435683176637120185e-10 0.000000000000000000e+00 1.894661274903181983e-07)
(5.320203700151636244e-07 4.266798399977899075e-09 0.000000000000000000e+00 6.981648389929522187e-10 0.000000000000000000e+00 1.833388293293270847e-07)
(5.260194297458154627e-07 4.157296490613926816e-09 0.000000000000000000e+00 6.634414718981258400e-10 0.000000000000000000e+00 1.780735707297838795e-07)
(5.202466742798462607e-07 4.002367490115928422e-09 0.000000000000000000e+00 6.268731928251357802e-10 0.000000000000000000e+00 1.731961316981498701e-07)
(5.155726995114689342e-07 3.907777247744989302e-09 0.000000000000000000e+00 5.987181290748786386e-10 0.000000000000000000e+00 1.689944146156824718e-07)
(5.112424788520713173e-07 3.820770878268839213e-09 0.000000000000000000e+00 5.742238588414665901e-10 0.000000000000000000e+00 1.650233333171714325e-07)
(5.076097096046062749e-07 3.753204740654740593e-09 0.000000000000000000e+00 5.595093256596700826e-10 0.000000000000000000e+00 1.622232036412121249e-07)
(5.042139297246224969e-07 3.718888565626763316e-09 0.000000000000000000e+00 5.481515927383388847e-10 0.000000000000000000e+00 1.600840666856461655e-07)
(5.008270503014211324e-07 3.648300926557506017e-09 0.000000000000000000e+00 5.243489853969078113e-10 0.000000000000000000e+00 1.571451674533261229e-07)
(4.980875749905920843e-07 3.619745986523966374e-09 0.000000000000000000e+00 5.004483809722744863e-10 0.000000000000000000e+00 1.545692857371103458e-07)
(4.957844941909860836e-07 3.582301380502474452e-09 0.000000000000000000e+00 4.878255290513257891e-10 0.000000000000000000e+00 1.525994643087832846e-07)
(4.936132011894541145e-07 3.577564576139683668e-09 0.000000000000000000e+00 4.709433241438221102e-10 0.000000000000000000e+00 1.507464566060858278e-07)
(4.912738971862523072e-07 3.556088145291364629e-09 0.000000000000000000e+00 4.526327347659332196e-10 0.000000000000000000e+00 1.487958536421151638e-07)
(4.887638855304548611e-07 3.532867181448991172e-09 0.000000000000000000e+00 4.378209268237802522e-10 0.000000000000000000e+00 1.471030310835179221e-07)
(4.864934275380490936e-07 3.488030266765322377e-09 0.000000000000000000e+00 4.207034478888125327e-10 0.000000000000000000e+00 1.457415221613480988e-07)
(4.849601357202751379e-07 3.504645117081996380e-09 0.000000000000000000e+00 4.076482819106561309e-10 0.000000000000000000e+00 1.447629703636778652e-07)
(4.832218159342860507e-07 3.496498288472526322e-09 0.000000000000000000e+00 3.936319467861612826e-10 0.000000000000000000e+00 1.437329074607626440e-07)
(4.822273275739407793e-07 3.510874838362356868e-09 0.000000000000000000e+00 3.830377222496211042e-10 0.000000000000000000e+00 1.428810179900513398e-07)
(4.815413736308049311e-07 3.541016792181201874e-09 0.000000000000000000e+00 3.741139791026519418e-10 0.000000000000000000e+00 1.425674171283542767e-07)
(4.809833908967676762e-07 3.574224015602610472e-09 0.000000000000000000e+00 3.657079216429827978e-10 0.000000000000000000e+00 1.423562676370780933e-07)
(4.804743267360268803e-07 3.616258250864749027e-09 0.000000000000000000e+00 3.612764224828210143e-10 0.000000000000000000e+00 1.423546003956656181e-07)
(4.799840680113837790e-07 3.662985400523985588e-09 0.000000000000000000e+00 3.575402139653857689e-10 0.000000000000000000e+00 1.426853371881922335e-07)
(4.799774582310242437e-07 3.721731532554102246e-09 0.000000000000000000e+00 3.567240087375321967e-10 0.000000000000000000e+00 1.435941469746394489e-07)
(4.802855813421705848e-07 3.790828740505894564e-09 0.000000000000000000e+00 3.545315315229579565e-10 0.000000000000000000e+00 1.447118730023293091e-07)
(4.806789053255194586e-07 3.862565556338710738e-09 0.000000000000000000e+00 3.550122536254580659e-10 0.000000000000000000e+00 1.460120487114573429e-07)
(4.810818241307167346e-07 3.948010878801935267e-09 0.000000000000000000e+00 3.556543723003803236e-10 0.000000000000000000e+00 1.472509871844193273e-07)
(4.814730183156916397e-07 4.027428240612762613e-09 0.000000000000000000e+00 3.543902797576619917e-10 0.000000000000000000e+00 1.486157270956645904e-07)
(4.822298431589955591e-07 4.119940147314751483e-09 0.000000000000000000e+00 3.540786941173810801e-10 0.000000000000000000e+00 1.503986271729073162e-07)
(4.833340499260527017e-07 4.240020612125479496e-09 0.000000000000000000e+00 3.571211372562006678e-10 0.000000000000000000e+00 1.526634471142812638e-07)
(4.840685275513177806e-07 4.377196940514786918e-09 0.000000000000000000e+00 3.622627156397393611e-10 0.000000000000000000e+00 1.552342336693305142e-07)
(4.840156361301892958e-07 4.499509265102894071e-09 0.000000000000000000e+00 3.673346875780144614e-10 0.000000000000000000e+00 1.578278544921537523e-07)
(4.835601829364657517e-07 4.604621901400704588e-09 0.000000000000000000e+00 3.716375175310947795e-10 0.000000000000000000e+00 1.603454760135030323e-07)
(4.830835884905591852e-07 4.713864760821220572e-09 0.000000000000000000e+00 3.773973175391530977e-10 0.000000000000000000e+00 1.628067806632193392e-07)
(4.827064286295547751e-07 4.841022516054271090e-09 0.000000000000000000e+00 3.856017392322426867e-10 0.000000000000000000e+00 1.655298035742099883e-07)
(1.467114493644215625e-06 1.515430719194677459e-08 0.000000000000000000e+00 1.207827219026041955e-09 0.000000000000000000e+00 5.129937375437706343e-07)
(1.462768187073249400e-06 1.550583719452140519e-08 0.000000000000000000e+00 1.234456092546231549e-09 0.000000000000000000e+00 5.217686631909154694e-07)
(1.458054152843894250e-06 1.584896063081245716e-08 0.000000000000000000e+00 1.261508694548388334e-09 0.000000000000000000e+00 5.296685313194921149e-07)
(1.455592415014525131e-06 1.621462456791257155e-08 0.000000000000000000e+00 1.296976022066654363e-09 0.000000000000000000e+00 5.383283952487605319e-07)
(1.453508097545788832e-06 1.656982562720588710e-08 0.000000000000000000e+00 1.333536729563163892e-09 0.000000000000000000e+00 5.466170044198538419e-07)
(1.451586389908634974e-06 1.691903862994626410e-08 0.000000000000000000e+00 1.370719606155975596e-09 0.000000000000000000e+00 5.545088567830245596e-07)
(1.449979934677151533e-06 1.723053294265218415e-08 0.000000000000000000e+00 1.408855437902418432e-09 0.000000000000000000e+00 5.626107399228678209e-07)
(1.448574696709115120e-06 1.753599319472123126e-08 0.000000000000000000e+00 1.453122052864854516e-09 0.000000000000000000e+00 5.708955409448409314e-07)
(1.448281785891989921e-06 1.784854296508384587e-08 0.000000000000000000e+00 1.498049561504355243e-09 0.000000000000000000e+00 5.793282099115936413e-07)
(1.447592632989829864e-06 1.817639579047210411e-08 0.000000000000000000e+00 1.547727560406685703e-09 0.000000000000000000e+00 5.877418110537773267e-07)
(1.446187805971695802e-06 1.838354330720863027e-08 0.000000000000000000e+00 1.593969356454380333e-09 0.000000000000000000e+00 5.947678389672139164e-07)
(1.445754188119440576e-06 1.861089776987701779e-08 0.000000000000000000e+00 1.636612431106895114e-09 0.000000000000000000e+00 6.012237394458321824e-07)
(1.445401609965441138e-06 1.879695466504230833e-08 0.000000000000000000e+00 1.683602063319383291e-09 0.000000000000000000e+00 6.074948763437570469e-07)
(1.446523785696860601e-06 1.896232909981787999e-08 0.000000000000000000e+00 1.737554666922079947e-09 0.000000000000000000e+00 6.140799149159974792e-07)
(1.449953408583946060e-06 1.913372747013597604e-08 0.000000000000000000e+00 1.793485598760912415e-09 0.000000000000000000e+00 6.207396337677276121e-07)
(1.454837031636913295e-06 1.935143004494439251e-08 0.000000000000000000e+00 1.852406732991877046e-09 0.000000000000000000e+00 6.277388179949213314e-07)
(1.462783190969135715e-06 1.966441894855243753e-08 0.000000000000000000e+00 1.937602537613084059e-09 0.000000000000000000e+00 6.358671643693944811e-07)
(1.472973723778319298e-06 2.005118450512383425e-08 0.000000000000000000e+00 2.045522925349780649e-09 0.000000000000000000e+00 6.448024563191701330e-07)
(1.483819336382359072e-06 2.046601141252411973e-08 0.000000000000000000e+00 2.156577740331904851e-09 0.000000000000000000e+00 6.540230103765572211e-07)
(1.490094776599355469e-06 2.062434506564121600e-08 0.000000000000000000e+00 2.223821608805861611e-09 0.000000000000000000e+00 6.621438776471130616e-07)
(1.505730332437847382e-06 2.102315773223344973e-08 0.000000000000000000e+00 2.357431528919867750e-09 0.000000000000000000e+00 6.735646611648322123e-07)
(1.524073160441426551e-06 2.156153530570818204e-08 0.000000000000000000e+00 2.498513347436570716e-09 0.000000000000000000e+00 6.845652427397502889e-07)
(1.540400323547206481e-06 2.198559538302538285e-08 0.000000000000000000e+00 2.634164702756492723e-09 0.000000000000000000e+00 6.952493731636448436e-07)
(1.557837406176907588e-06 2.238147984543383924e-08 0.000000000000000000e+00 2.769816484937302824e-09 0.000000000000000000e+00 7.052908534717344678e-07)
(1.569946738031174755e-06 2.258174024587104929e-08 0.000000000000000000e+00 2.850776411769924857e-09 0.000000000000000000e+00 7.140748192316641450e-07)
(1.588852136663550320e-06 2.301199758700966160e-08 0.000000000000000000e+00 2.989410031121674538e-09 0.000000000000000000e+00 7.241028849869581960e-07)
(1.603670983036831830e-06 2.315977906351165134e-08 0.000000000000000000e+00 3.063011559774359681e-09 0.000000000000000000e+00 7.321684708500278767e-07)
(1.628563521547766552e-06 2.367706472731222001e-08 0.000000000000000000e+00 3.239706217991311708e-09 0.000000000000000000e+00 7.444424820716690108e-07)
(1.647675833750865716e-06 2.401163892025759621e-08 0.000000000000000000e+00 3.351139517780875423e-09 0.000000000000000000e+00 7.553184433964638094e-07)
(1.671190201614442053e-06 2.452415745089259389e-08 0.000000000000000000e+00 3.518594283096237934e-09 0.000000000000000000e+00 7.673680555077473429e-07)
(1.689400903236423697e-06 2.473159043078020901e-08 0.000000000000000000e+00 3.617779686517903343e-09 0.000000000000000000e+00 7.777929922546395769e-07)
(1.716623126191413179e-06 2.533023192640311412e-08 0.000000000000000000e+00 3.798444581684993479e-09 0.000000000000000000e+00 7.922427942568539825e-07)
(1.734897189895741125e-06 2.578531194523098112e-08 0.000000000000000000e+00 3.913912435377190195e-09 0.000000000000000000e+00 8.034316455427512106e-07)
(1.759060120556512917e-06 2.630763749575482470e-08 0.000000000000000000e+00 4.108097105958902236e-09 0.000000000000000000e+00 8.164554787913911423e-07)
(1.775646452860577152e-06 2.655219586567130946e-08 0.000000000000000000e+00 4.213632092171400456e-09 0.000000000000000000e+00 8.281239275614145336e-07)
(1.794774806271159850e-06 2.667453356592273545e-08 0.000000000000000000e+00 4.321297677921012600e-09 0.000000000000000000e+00 8.390799724666895554e-07)
(1.817867103399329221e-06 2.694355456366123097e-08 0.000000000000000000e+00 4.439443674290244767e-09 0.000000000000000000e+00 8.488169443162953161e-07)
(1.843673338221134127e-06 2.750908031016291883e-08 0.000000000000000000e+00 4.649019952633632770e-09 0.000000000000000000e+00 8.614109058978850826e-07)
(1.861844541805483238e-06 2.769441005448140206e-08 0.000000000000000000e+00 4.742648261450031959e-09 0.000000000000000000e+00 8.702694389701429885e-07)
(1.876505181142841097e-06 2.781838735489314877e-08 0.000000000000000000e+00 4.826870300677373233e-09 0.000000000000000000e+00 8.759304866062389490e-07)
(1.887199603615535932e-06 2.768827833637252505e-08 0.000000000000000000e+00 4.879210677558309943e-09 0.000000000000000000e+00 8.783665726795290078e-07)
(1.903159352206458969e-06 2.785546474025572838e-08 0.000000000000000000e+00 5.000172131682708589e-09 0.000000000000000000e+00 8.826943688285355882e-07)
(1.912257417441752986e-06 2.770240108360531928e-08 0.000000000000000000e+00 5.028361062353397872e-09 0.000000000000000000e+00 8.844004366609830586e-07)
(1.924265178205643549e-06 2.746776093113058144e-08 0.000000000000000000e+00 5.061157310495279495e-09 0.000000000000000000e+00 8.862035966959413303e-07)
(1.935480834805406862e-06 2.740275049749698668e-08 0.000000000000000000e+00 5.071694029327439556e-09 0.000000000000000000e+00 8.869156610915940006e-07)
(1.943378183121088073e-06 2.717126644909338885e-08 0.000000000000000000e+00 5.076584148228463201e-09 0.000000000000000000e+00 8.856972020239115926e-07)
(1.947505365834088876e-06 2.683459451012846581e-08 0.000000000000000000e+00 5.080687783294045985e-09 0.000000000000000000e+00 8.827175430660766564e-07)
(1.953112353250295916e-06 2.651932711227506662e-08 0.000000000000000000e+00 5.076394763860577020e-09 0.000000000000000000e+00 8.788856129424153899e-07)
(1.961099879919162292e-06 2.628821806473140948e-08 0.000000000000000000e+00 5.068456742238696960e-09 0.000000000000000000e+00 8.731592590842249099e-07)
(1.963969699493241311e-06 2.597453282113002033e-08 0.000000000000000000e+00 5.038616856737742549e-09 0.000000000000000000e+00 8.627017454942769637e-07)
(1.965856601146542319e-06 2.544427466985876199e-08 0.000000000000000000e+00 4.972488699992725008e-09 0.000000000000000000e+00 8.517075414788464342e-07)
(1.966233762173757149e-06 2.504765016932669832e-08 0.000000000000000000e+00 4.923274993019917920e-09 0.000000000000000000e+00 8.439441797464735570e-07)
(1.961804525241266119e-06 2.451185520874964675e-08 0.000000000000000000e+00 4.874772853669690203e-09 0.000000000000000000e+00 8.334774052647166751e-07)
(1.958526604401938645e-06 2.398954765754057911e-08 0.000000000000000000e+00 4.786447648947037363e-09 0.000000000000000000e+00 8.206867939115731378e-07)
(1.953345373666758662e-06 2.345042571990944648e-08 0.000000000000000000e+00 4.669409246445916835e-09 0.000000000000000000e+00 8.081366931255329863e-07)
(1.945841558514137404e-06 2.288973060772252376e-08 0.000000000000000000e+00 4.545328238765552956e-09 0.000000000000000000e+00 7.938944912651190453e-07)
(1.930062203078802608e-06 2.223565672458952476e-08 0.000000000000000000e+00 4.405645763951999424e-09 0.000000000000000000e+00 7.760470815062909321e-07)
(1.912267366557360263e-06 2.146697346153296095e-08 0.000000000000000000e+00 4.286016827171148385e-09 0.000000000000000000e+00 7.604389294193798076e-07)
(1.890638574741115828e-06 2.047364544167012467e-08 0.000000000000000000e+00 4.071321572641726317e-09 0.000000000000000000e+00 7.397706823674700491e-07)
(1.874938224739811701e-06 1.980206231917630240e-08 0.000000000000000000e+00 3.899509131316057963e-09 0.000000000000000000e+00 7.200205599341786888e-07)
(1.858994478806738521e-06 1.922948591099439902e-08 0.000000000000000000e+00 3.750413271770828633e-09 0.000000000000000000e+00 7.008352775218869503e-07)
(1.840166345115434890e-06 1.865276964934319066e-08 0.000000000000000000e+00 3.604880447849434429e-09 0.000000000000000000e+00 6.811694785374306160e-07)
(1.813282851190382315e-06 1.774632461638319195e-08 0.000000000000000000e+00 3.374080812994765310e-09 0.000000000000000000e+00 6.611542407857233684e-07)
(1.796023638389887809e-06 1.700627641567084304e-08 0.000000000000000000e+00 3.201114862914059340e-09 0.000000000000000000e+00 6.423323752435047086e-07)
(1.777996270750671285e-06 1.658160946163317491e-08 0.000000000000000000e+00 3.066071054725338179e-09 0.000000000000000000e+00 6.268814084717554082e-07)
(1.757717585003600175e-06 1.591322642340316067e-08 0.000000000000000000e+00 2.919593773673269103e-09 0.000000000000000000e+00 6.077855411868398936e-07)
(1.731635526464215966e-06 1.516514622495566925e-08 0.000000000000000000e+00 2.694289989323252072e-09 0.000000000000000000e+00 5.867027459226165931e-07)
(1.712435169176283754e-06 1.477840379317822136e-08 0.000000000000000000e+00 2.561814131107465656e-09 0.000000000000000000e+00 5.699751084218890733e-07)
(1.686920258517607755e-06 1.407904531184272440e-08 0.000000000000000000e+00 2.380754334507828828e-09 0.000000000000000000e+00 5.530485606459006428e-07)
(1.671929303062185271e-06 1.375221402143221663e-08 0.000000000000000000e+00 2.273177802815073803e-09 0.000000000000000000e+00 5.397014731852429739e-07)
(1.658017384449534367e-06 1.344859350684352459e-08 0.000000000000000000e+00 2.180086350150037474e-09 0.000000000000000000e+00 5.270862986406203963e-07)
(1.639514849929251374e-06 1.305826141807207408e-08 0.000000000000000000e+00 2.084738260438758189e-09 0.000000000000000000e+00 5.168366990897593446e-07)
(1.621782833113978620e-06 1.278298761443572153e-08 0.000000000000000000e+00 2.001959833901890617e-09 0.000000000000000000e+00 5.086669674141288314e-07)
(1.611004618652723095e-06 1.254729118941945169e-08 0.000000000000000000e+00 1.916210498217858083e-09 0.000000000000000000e+00 4.994118069691572939e-07)
(1.595425443393548739e-06 1.229488094136532580e-08 0.000000000000000000e+00 1.795334667869320222e-09 0.000000000000000000e+00 4.899617016840196079e-07)
(1.588063424914417357e-06 1.216961544416094177e-08 0.000000000000000000e+00 1.748896881461427124e-09 0.000000000000000000e+00 4.837661693264887666e-07)
(1.574366289302323761e-06 1.199701780924608150e-08 0.000000000000000000e+00 1.655940624415339400e-09 0.000000000000000000e+00 4.766138425202564156e-07)
(1.560150668698659554e-06 1.177289024918637972e-08 0.000000000000000000e+00 1.558736141138074488e-09 0.000000000000000000e+00 4.691719504614474474e-07)
(1.552264214099849664e-06 1.169980007602093039e-08 0.000000000000000000e+00 1.508960162892680606e-09 0.000000000000000000e+00 4.638859668791555977e-07)
(1.538371204775113395e-06 1.140580202829349392e-08 0.000000000000000000e+00 1.420231993700402127e-09 0.000000000000000000e+00 4.583191465692364911e-07)
(1.526816997717797817e-06 1.130806567145156400e-08 0.000000000000000000e+00 1.346854677169175275e-09 0.000000000000000000e+00 4.539503953862074933e-07)
(1.514662086374751710e-06 1.113081278534824123e-08 0.000000000000000000e+00 1.272285319342577110e-09 0.000000000000000000e+00 4.494265725648022847e-07)
(1.504849424727618567e-06 1.102256645236053733e-08 0.000000000000000000e+00 1.209905480181105341e-09 0.000000000000000000e+00 4.454579311831175436e-07)
(1.497594586769427912e-06 1.101250115489028157e-08 0.000000000000000000e+00 1.163510026249315131e-09 0.000000000000000000e+00 4.433851906632757904e-07)
(1.493454331412831375e-06 1.109790654719870522e-08 0.000000000000000000e+00 1.135531669472970870e-09 0.000000000000000000e+00 4.420162269893489926e-07)
(1.489471076963869702e-06 1.121032431495174446e-08 0.000000000000000000e+00 1.119967153310533699e-09 0.000000000000000000e+00 4.412990091438065202e-07)
(1.485551129236686711e-06 1.133691105675923008e-08 0.000000000000000000e+00 1.106594994941698885e-09 0.000000000000000000e+00 4.416100894546446172e-07)
(1.483130355420758889e-06 1.150012438486459692e-08 0.000000000000000000e+00 1.102280777009609947e-09 0.000000000000000000e+00 4.437053004637099784e-07)
(1.481680491080548808e-06 1.169457676332676284e-08 0.000000000000000000e+00 1.093730083219716421e-09 0.000000000000000000e+00 4.464343047474535869e-07)
(1.480490291420640255e-06 1.189659084108874193e-08 0.000000000000000000e+00 1.093434306648728812e-09 0.000000000000000000e+00 4.497151956091061237e-07)
(1.479326351353645094e-06 1.214003879147288356e-08 0.000000000000000000e+00 1.093639386962831361e-09 0.000000000000000000e+00 4.527951023775689052e-07)
(1.478121305405549819e-06 1.236410239243346986e-08 0.000000000000000000e+00 1.087978436472428389e-09 0.000000000000000000e+00 4.562482584226095195e-07)