/*--------------------------------*- C++ -*----------------------------------*\
| =========                 |                                                 |
| \\      /  F ield         | OpenFOAM: The Open Source CFD Toolbox           |
|  \\    /   O peration     | Version:  2.3.x                                 |
|   \\  /    A nd           | Web:      www.OpenFOAM.org                      |
|    \\/     M anipulation  |                                                 |
\*---------------------------------------------------------------------------*/
FoamFile
{
    version     2.0;
    format      ascii;
    class       volVectorField;
    location    "10000";
    object      U;
}
// * * * * * * * * * * * * * * * * * * * * * * * * * * * * * * * * * * * * * //

dimensions      [0 1 -1 0 0 0 0];

internalField   nonuniform List<vector> 
14751
(
(0.00148591 -1.76297e-07 0)
(0.00150957 -2.2268e-07 0)
(0.00153369 -1.02299e-07 3.97044e-25)
(0.00155029 -5.29713e-08 -6.6234e-25)
(0.00156491 2.10188e-08 2.59537e-25)
(0.00157334 9.76232e-08 -1.11001e-26)
(0.0015771 1.54313e-07 1.11083e-26)
(0.00157685 2.21686e-07 -3.4664e-26)
(0.00157192 2.74277e-07 -6.01261e-28)
(0.00156331 3.21192e-07 8.09195e-29)
(0.00155126 3.57935e-07 1.49751e-27)
(0.00153621 3.88145e-07 -1.49888e-27)
(0.00151854 4.08909e-07 5.28647e-27)
(0.00149895 4.20899e-07 -5.29129e-27)
(0.00147783 4.27277e-07 -4.4359e-25)
(0.00145569 4.25008e-07 8.45949e-27)
(0.00143289 4.19103e-07 2.68782e-25)
(0.00140971 4.05405e-07 1.97586e-26)
(0.00138657 3.88637e-07 -1.03377e-26)
(0.00136366 3.66839e-07 1.19686e-26)
(0.00134125 3.43722e-07 -4.86968e-26)
(0.00131951 3.17719e-07 2.61391e-26)
(0.00129856 2.93709e-07 -4.1405e-26)
(0.00127849 2.67817e-07 4.25767e-26)
(0.00125947 2.44707e-07 5.8723e-26)
(0.00124146 2.21799e-07 -7.612e-26)
(0.00122456 2.00944e-07 0)
(0.00120875 1.81074e-07 0)
(0.00119406 1.62823e-07 6.54126e-26)
(0.00118045 1.46012e-07 1.67183e-26)
(0.00116791 1.30561e-07 -5.03851e-26)
(0.0011564 1.16476e-07 -3.4001e-26)
(0.00114588 1.03635e-07 0)
(0.00113633 9.19565e-08 -3.44361e-26)
(0.00112767 8.15566e-08 -8.63681e-27)
(0.00111988 7.21374e-08 1.72751e-26)
(0.00111295 6.35945e-08 -8.63818e-27)
(0.00110678 5.60091e-08 0)
(0.00110132 4.90518e-08 0)
(0.00109655 4.38332e-08 0)
(0.00109246 3.85773e-08 -4.19732e-27)
(0.00108892 3.34964e-08 -1.06506e-24)
(0.0010859 2.95159e-08 0)
(0.00108334 2.55399e-08 -2.60681e-25)
(0.00108117 2.25806e-08 0)
(0.00107943 2.01817e-08 9.77152e-28)
(0.00107807 1.7863e-08 -2.48813e-25)
(0.00107706 1.63271e-08 -2.34546e-28)
(0.00107636 1.48396e-08 5.37013e-30)
(0.00107596 1.3987e-08 -6.76193e-28)
(0.00107582 1.33244e-08 2.26327e-25)
(0.00107591 1.28982e-08 0)
(0.00107618 1.30541e-08 1.63723e-27)
(0.00107664 1.36634e-08 -1.63713e-27)
(0.00107724 1.44305e-08 3.05043e-27)
(0.00107794 1.60112e-08 -3.05017e-27)
(0.00107871 1.77203e-08 -2.80918e-27)
(0.00107949 2.04274e-08 -1.72977e-25)
(0.00108021 2.36418e-08 -1.67539e-25)
(0.00108073 2.73817e-08 -6.41011e-25)
(0.00108085 3.35991e-08 9.38953e-27)
(0.00108039 4.07547e-08 -4.55561e-27)
(0.00107906 5.17761e-08 1.0605e-24)
(0.0010766 6.70359e-08 -7.65771e-27)
(0.0010726 8.3816e-08 3.67851e-27)
(0.00106654 1.05203e-07 0)
(0.00105793 1.30604e-07 1.90646e-25)
(0.00104636 1.5984e-07 -5.45593e-27)
(0.00103157 1.904e-07 -7.1086e-26)
(0.00101353 2.19787e-07 -5.98051e-26)
(0.000992694 2.44816e-07 4.81606e-26)
(0.000970017 2.61091e-07 0)
(0.000946897 2.6626e-07 0)
(0.00092489 2.60264e-07 -6.39578e-28)
(0.000905524 2.43061e-07 5.3537e-28)
(0.00089008 2.1987e-07 -2.49257e-27)
(0.000879127 1.95135e-07 -1.54093e-27)
(0.000872987 1.65586e-07 -1.51114e-27)
(0.000871601 1.39854e-07 -1.47535e-27)
(0.000874743 1.05069e-07 1.30842e-25)
(0.000882234 7.92079e-08 1.46277e-25)
(0.000893727 4.54001e-08 1.5682e-25)
(0.00090921 1.49425e-08 1.11422e-26)
(0.000928171 -1.9513e-08 0)
(0.000950608 -5.50771e-08 2.34409e-25)
(0.000976256 -8.96375e-08 2.44878e-25)
(0.0010049 -1.26002e-07 -2.68128e-25)
(0.00103638 -1.62826e-07 0)
(0.0010703 -1.96822e-07 0)
(0.00110658 -2.36626e-07 0)
(0.00114473 -2.66239e-07 6.11168e-25)
(0.00118408 -2.95065e-07 4.89157e-27)
(0.00122489 -3.30082e-07 4.42463e-26)
(0.00126567 -3.36218e-07 -9.81939e-27)
(0.0013065 -3.68832e-07 -9.64419e-27)
(0.00134689 -3.59638e-07 9.63427e-27)
(0.00138455 -3.52068e-07 -1.50112e-25)
(0.00141881 -2.98841e-07 2.25836e-27)
(0.00145517 -3.61764e-07 0)
(0.00441234 -2.05441e-06 2.69556e-27)
(0.00447465 -2.03823e-06 -2.10666e-23)
(0.00453664 -1.45586e-06 -1.1214e-24)
(0.00458151 -1.0651e-06 1.54005e-24)
(0.0046207 -6.20862e-07 3.11662e-25)
(0.00464496 -1.10099e-07 -1.24607e-24)
(0.00465715 2.68415e-07 -2.64666e-23)
(0.00465894 6.80624e-07 5.20577e-26)
(0.0046488 1.03397e-06 -6.0318e-25)
(0.00462901 1.34433e-06 -1.23264e-25)
(0.00460024 1.61069e-06 -2.95045e-23)
(0.00456366 1.83477e-06 0)
(0.00452029 2.01189e-06 5.82233e-23)
(0.00447183 2.14109e-06 4.92989e-24)
(0.00441938 2.23171e-06 -1.00466e-23)
(0.00436413 2.27766e-06 -7.81973e-25)
(0.00430709 2.30052e-06 1.35089e-23)
(0.00424899 2.28447e-06 -7.37487e-24)
(0.00419091 2.24998e-06 -5.88439e-23)
(0.00413333 2.19131e-06 -8.80344e-24)
(0.00407702 2.11805e-06 7.61728e-26)
(0.00402237 2.02658e-06 8.25728e-23)
(0.00396974 1.93555e-06 -9.79572e-23)
(0.00391931 1.82666e-06 1.13474e-22)
(0.00387161 1.71958e-06 -1.16908e-23)
(0.00382653 1.60722e-06 9.53451e-26)
(0.00378433 1.49635e-06 0)
(0.00374496 1.38489e-06 -1.02996e-22)
(0.00370851 1.27596e-06 -6.7271e-24)
(0.0036749 1.17059e-06 6.63875e-24)
(0.0036441 1.06884e-06 -6.76678e-24)
(0.00361603 9.71543e-07 -4.1474e-27)
(0.00359059 8.78829e-07 -4.85075e-23)
(0.00356768 7.91188e-07 -5.2216e-23)
(0.00354715 7.09182e-07 -3.4943e-24)
(0.00352897 6.31667e-07 -5.25779e-23)
(0.00351306 5.58662e-07 5.60537e-23)
(0.00349916 4.91477e-07 -1.46338e-26)
(0.00348719 4.28353e-07 -3.48968e-24)
(0.00347706 3.73325e-07 1.72241e-24)
(0.00346874 3.19721e-07 -1.61023e-26)
(0.00346191 2.69744e-07 -8.73243e-27)
(0.00345647 2.25503e-07 0)
(0.00345228 1.83645e-07 4.14507e-25)
(0.00344915 1.47367e-07 8.0982e-25)
(0.00344717 1.142e-07 -1.36593e-23)
(0.0034462 8.3209e-08 -5.52215e-24)
(0.00344616 5.66838e-08 5.78894e-24)
(0.00344694 3.17919e-08 0)
(0.0034485 1.04823e-08 0)
(0.00345073 -8.55987e-09 1.25412e-24)
(0.00345353 -2.4991e-08 -1.76971e-25)
(0.00345678 -3.78501e-08 -6.65836e-25)
(0.00346044 -4.77755e-08 2.22806e-26)
(0.00346442 -5.51158e-08 1.26286e-24)
(0.00346858 -5.7269e-08 -6.19545e-25)
(0.00347278 -5.63842e-08 0)
(0.00347687 -4.85561e-08 2.78695e-25)
(0.00348061 -3.34743e-08 2.65491e-25)
(0.00348357 -6.37821e-09 2.9676e-24)
(0.00348513 4.0833e-08 -1.11949e-25)
(0.00348475 1.0693e-07 -1.14941e-25)
(0.00348153 2.04104e-07 -3.0132e-23)
(0.00347462 3.37705e-07 -2.48014e-23)
(0.00346277 5.04743e-07 2.2823e-23)
(0.00344446 7.18313e-07 0)
(0.00341814 9.74086e-07 -2.49784e-24)
(0.00338258 1.26344e-06 2.20488e-24)
(0.00333693 1.56549e-06 1.12228e-25)
(0.00328103 1.84806e-06 1.2181e-23)
(0.00321617 2.07023e-06 -7.60741e-26)
(0.00314509 2.18767e-06 -7.59056e-25)
(0.00307186 2.17263e-06 -8.90362e-24)
(0.0030012 2.02011e-06 -4.61274e-24)
(0.0029378 1.74066e-06 3.75521e-25)
(0.0028856 1.37971e-06 -3.77127e-25)
(0.00284665 9.83538e-07 -1.05667e-23)
(0.002822 5.6338e-07 -1.54866e-23)
(0.00281165 1.69133e-07 2.82698e-24)
(0.00281491 -2.35512e-07 -3.01359e-24)
(0.00283122 -5.86964e-07 2.90954e-23)
(0.00285945 -9.43445e-07 -2.62297e-25)
(0.00289934 -1.26319e-06 4.94699e-24)
(0.00294942 -1.57251e-06 -1.03298e-23)
(0.00300938 -1.86734e-06 5.02847e-24)
(0.00307836 -2.1383e-06 9.58651e-23)
(0.00315556 -2.39858e-06 -2.88086e-24)
(0.00324032 -2.63979e-06 3.26187e-24)
(0.00333147 -2.8531e-06 0)
(0.00342847 -3.06228e-06 -1.82527e-24)
(0.00352984 -3.2039e-06 8.94572e-25)
(0.00363388 -3.32499e-06 1.19928e-22)
(0.00374064 -3.43431e-06 4.13705e-25)
(0.00384692 -3.41621e-06 -2.79589e-24)
(0.00395233 -3.46851e-06 1.85243e-24)
(0.00405569 -3.31055e-06 5.6748e-23)
(0.00415164 -3.11151e-06 6.75397e-25)
(0.00424097 -2.87079e-06 4.24045e-25)
(0.00433293 -2.96879e-06 0)
(0.00734017 -5.69959e-06 2.64805e-27)
(0.0074327 -5.43574e-06 2.06834e-23)
(0.00752412 -4.10735e-06 -1.06103e-24)
(0.00759421 -3.10378e-06 1.06309e-24)
(0.00765617 -2.02319e-06 1.03131e-22)
(0.00769818 -7.61937e-07 -7.88093e-23)
(0.00772282 2.31509e-07 2.66224e-23)
(0.00773247 1.29331e-06 -4.87204e-26)
(0.00772499 2.24389e-06 7.67509e-25)
(0.0077033 3.08891e-06 2.9173e-23)
(0.00766844 3.83335e-06 -3.08888e-23)
(0.0076221 4.46436e-06 2.28644e-24)
(0.00756582 4.98518e-06 -5.80072e-23)
(0.00750198 5.3882e-06 0)
(0.0074322 5.68686e-06 -1.60128e-22)
(0.00735818 5.87373e-06 -1.15899e-23)
(0.00728141 5.98978e-06 0)
(0.00720294 6.00438e-06 0)
(0.00712437 5.96088e-06 5.03064e-23)
(0.00704641 5.8516e-06 1.7709e-23)
(0.00697015 5.69419e-06 0)
(0.00689616 5.48652e-06 -6.19761e-23)
(0.00682499 5.26773e-06 6.62872e-23)
(0.0067569 5.00052e-06 2.75197e-22)
(0.00669266 4.72728e-06 1.90778e-22)
(0.00663216 4.43671e-06 -2.49945e-23)
(0.00657574 4.14295e-06 2.28268e-22)
(0.00652337 3.84366e-06 1.04166e-22)
(0.0064752 3.54636e-06 -1.34014e-23)
(0.00643112 3.2547e-06 1.34311e-23)
(0.00639107 2.96959e-06 2.19674e-22)
(0.00635495 2.69359e-06 -2.36114e-22)
(0.00632263 2.42787e-06 -1.40068e-22)
(0.00629398 2.17392e-06 -7.04093e-23)
(0.00626879 1.93311e-06 0)
(0.00624699 1.70438e-06 4.95485e-23)
(0.00622847 1.48624e-06 -5.65489e-23)
(0.0062129 1.28349e-06 1.19844e-22)
(0.00620013 1.09195e-06 0)
(0.00619004 9.21266e-07 0)
(0.00618253 7.5511e-07 3.43387e-24)
(0.00617722 6.0148e-07 -6.82663e-24)
(0.00617393 4.63305e-07 3.39234e-24)
(0.00617247 3.32283e-07 -5.31884e-23)
(0.00617258 2.17146e-07 -5.23374e-23)
(0.00617433 1.10125e-07 1.28522e-23)
(0.00617753 1.06608e-08 6.30065e-24)
(0.00618206 -7.69895e-08 -5.404e-24)
(0.00618776 -1.58527e-07 -9.47366e-25)
(0.00619454 -2.30171e-07 -1.85748e-25)
(0.00620224 -2.94145e-07 -7.1416e-24)
(0.00621069 -3.49928e-07 0)
(0.00621971 -3.94896e-07 -1.32162e-24)
(0.00622921 -4.30873e-07 2.08145e-23)
(0.00623901 -4.57297e-07 1.27382e-24)
(0.0062489 -4.68494e-07 4.085e-23)
(0.0062586 -4.67573e-07 -9.83125e-26)
(0.00626786 -4.44929e-07 -2.25283e-24)
(0.00627623 -3.95843e-07 -4.08829e-24)
(0.00628306 -3.03852e-07 4.08314e-24)
(0.00628728 -1.4626e-07 0)
(0.006288 7.87849e-08 5.98437e-23)
(0.00628373 4.00751e-07 2.29464e-23)
(0.00627297 8.40308e-07 -2.44581e-23)
(0.00625368 1.40009e-06 -2.79014e-23)
(0.00622335 2.11111e-06 -3.08202e-23)
(0.00617945 2.96133e-06 -7.89555e-23)
(0.00611979 3.92089e-06 -3.83603e-24)
(0.00604274 4.9218e-06 3.8485e-24)
(0.00594777 5.85827e-06 -6.03995e-23)
(0.00583657 6.59293e-06 3.91086e-23)
(0.00571322 6.98317e-06 2.95327e-23)
(0.00558419 6.93507e-06 7.9963e-24)
(0.0054573 6.42716e-06 6.52287e-24)
(0.00534068 5.50208e-06 -7.73389e-25)
(0.00524132 4.2971e-06 7.75354e-25)
(0.00516339 2.9596e-06 1.08789e-23)
(0.00510897 1.56203e-06 -4.7885e-23)
(0.00507848 2.36823e-07 -5.83106e-24)
(0.00507078 -1.06761e-06 5.81415e-24)
(0.00508494 -2.22636e-06 -3.02152e-23)
(0.00511896 -3.34815e-06 -1.47245e-22)
(0.00517208 -4.35231e-06 -1.45151e-22)
(0.00524189 -5.28883e-06 -1.10647e-23)
(0.0053275 -6.15248e-06 1.09819e-23)
(0.00542728 -6.92585e-06 -1.04296e-22)
(0.00553969 -7.63459e-06 -3.82731e-25)
(0.00566338 -8.26109e-06 1.35383e-23)
(0.00579643 -8.78901e-06 -6.87797e-24)
(0.0059375 -9.2555e-06 -3.67003e-24)
(0.00608426 -9.5412e-06 2.39724e-22)
(0.00623409 -9.73651e-06 -1.20291e-22)
(0.00638654 -9.85121e-06 -2.38354e-22)
(0.00653772 -9.68381e-06 2.37577e-22)
(0.0066865 -9.59234e-06 -3.61966e-24)
(0.00683156 -9.05058e-06 -5.16015e-23)
(0.00696627 -8.42747e-06 1.08006e-22)
(0.00709428 -7.81009e-06 -7.76094e-28)
(0.00722455 -7.74509e-06 7.73289e-28)
(0.0102384 -1.07106e-05 2.56877e-27)
(0.01035 -9.91505e-06 -2.56406e-27)
(0.01046 -7.52684e-06 1.39485e-22)
(0.0105481 -5.58573e-06 1.23666e-22)
(0.0106267 -3.55723e-06 9.9717e-23)
(0.0106831 -1.26416e-06 7.71185e-23)
(0.0107185 6.51607e-07 1.02121e-22)
(0.010736 2.63345e-06 -5.10346e-23)
(0.0107331 4.43685e-06 -2.83268e-24)
(0.0107128 6.04862e-06 3.00574e-23)
(0.0106766 7.47577e-06 -5.77024e-23)
(0.0106265 8.68737e-06 0)
(0.0105644 9.69882e-06 0)
(0.0104931 1.049e-05 -9.42421e-24)
(0.0104147 1.10809e-05 1.73572e-22)
(0.0103311 1.14671e-05 0)
(0.0102442 1.17056e-05 0)
(0.0101552 1.17599e-05 4.71877e-22)
(0.010066 1.16928e-05 -4.81408e-22)
(0.00997746 1.15012e-05 -5.88346e-22)
(0.00989088 1.12107e-05 -5.54036e-22)
(0.00980689 1.08262e-05 -7.81911e-23)
(0.00972615 1.04047e-05 6.55628e-22)
(0.00964894 9.89802e-06 -3.00797e-22)
(0.00957616 9.36808e-06 -1.5513e-22)
(0.00950771 8.80436e-06 2.25604e-23)
(0.00944397 8.22847e-06 -5.64197e-22)
(0.00938492 7.64005e-06 -2.42511e-23)
(0.00933069 7.05197e-06 2.42338e-23)
(0.00928119 6.47152e-06 0)
(0.00923635 5.90168e-06 -6.02125e-22)
(0.00919606 5.34724e-06 6.32389e-22)
(0.00916016 4.81123e-06 1.78077e-22)
(0.00912849 4.29631e-06 8.9217e-23)
(0.00910086 3.80504e-06 1.27344e-23)
(0.00907714 3.33769e-06 2.03608e-22)
(0.00905721 2.88974e-06 2.02763e-22)
(0.00904072 2.47077e-06 8.81887e-23)
(0.00902751 2.0745e-06 1.25239e-23)
(0.00901742 1.7169e-06 1.91711e-22)
(0.00901029 1.36998e-06 1.22156e-23)
(0.00900579 1.04836e-06 -6.05783e-24)
(0.00900371 7.55026e-07 9.49482e-23)
(0.00900386 4.75871e-07 4.66681e-23)
(0.00900595 2.27462e-07 6.23888e-28)
(0.00901006 -5.67372e-09 -2.77807e-24)
(0.00901597 -2.22724e-07 4.12522e-24)
(0.00902357 -4.1828e-07 -1.35237e-24)
(0.00903266 -6.00296e-07 0)
(0.00904315 -7.63579e-07 -3.13158e-25)
(0.00905486 -9.10872e-07 5.24036e-24)
(0.00906759 -1.04178e-06 1.91017e-23)
(0.00908115 -1.15078e-06 0)
(0.00909542 -1.24113e-06 -1.78197e-23)
(0.00911016 -1.31022e-06 2.10385e-24)
(0.00912513 -1.34869e-06 -3.50292e-23)
(0.00913997 -1.3584e-06 3.85543e-24)
(0.00915435 -1.32202e-06 -7.52006e-24)
(0.0091677 -1.22619e-06 6.09186e-23)
(0.00917922 -1.0414e-06 -1.05215e-22)
(0.00918779 -7.23833e-07 -3.29285e-24)
(0.00919236 -2.65507e-07 -4.22817e-23)
(0.00919129 3.88267e-07 -1.12321e-23)
(0.00918282 1.27998e-06 4.21635e-23)
(0.00916467 2.42315e-06 8.20562e-23)
(0.00913408 3.87329e-06 3.52254e-23)
(0.00908809 5.61542e-06 6.37504e-23)
(0.00902394 7.60131e-06 -6.63776e-24)
(0.0089392 9.70819e-06 -9.2946e-23)
(0.00883219 1.17422e-05 4.24648e-23)
(0.00870331 1.34336e-05 -3.47406e-23)
(0.00855538 1.44837e-05 -2.65642e-23)
(0.00839437 1.46559e-05 0)
(0.0082289 1.3839e-05 0)
(0.00806947 1.20734e-05 0)
(0.00792646 9.60966e-06 0)
(0.00780753 6.75978e-06 0)
(0.00771735 3.74195e-06 7.0775e-23)
(0.00765814 8.2967e-07 -8.97714e-24)
(0.00762928 -1.99714e-06 0)
(0.00763006 -4.5371e-06 -2.37592e-22)
(0.00765786 -6.93614e-06 1.36102e-22)
(0.00771152 -9.0801e-06 4.36379e-22)
(0.00778789 -1.10383e-05 8.97227e-24)
(0.00788534 -1.28035e-05 1.08282e-23)
(0.00800145 -1.4355e-05 1.24675e-23)
(0.00813381 -1.57313e-05 3.82523e-22)
(0.00828029 -1.69086e-05 1.29847e-23)
(0.00843819 -1.78622e-05 0)
(0.00860527 -1.86387e-05 -4.50906e-22)
(0.0087785 -1.90728e-05 -2.35017e-22)
(0.00895442 -1.92889e-05 0)
(0.00913204 -1.9304e-05 2.37666e-22)
(0.00930745 -1.88493e-05 -2.35694e-22)
(0.0094787 -1.84027e-05 -4.56442e-22)
(0.00964502 -1.72616e-05 2.25393e-22)
(0.00979971 -1.59749e-05 -1.11032e-22)
(0.00994904 -1.47299e-05 1.02342e-22)
(0.0101004 -1.41583e-05 -3.74791e-25)
(0.0130488 -1.65014e-05 0)
(0.0131648 -1.48558e-05 -1.11783e-24)
(0.0132795 -1.1108e-05 -1.32719e-22)
(0.013373 -7.93286e-06 -1.14681e-22)
(0.0134564 -4.66728e-06 5.48151e-26)
(0.0135168 -1.11328e-06 1.41862e-22)
(0.0135537 2.00533e-06 -2.8706e-22)
(0.0135709 5.13341e-06 4.712e-23)
(0.0135652 8.00312e-06 2.45136e-24)
(0.0135401 1.05772e-05 -5.3089e-23)
(0.0134971 1.2856e-05 1.03693e-22)
(0.0134385 1.47921e-05 0)
(0.0133666 1.64135e-05 -7.09122e-24)
(0.0132843 1.76859e-05 5.08421e-22)
(0.0131939 1.8638e-05 0)
(0.0130975 1.92707e-05 -2.25527e-23)
(0.0129972 1.9649e-05 4.75349e-23)
(0.0128944 1.97448e-05 -4.44157e-22)
(0.0127913 1.9634e-05 4.54682e-22)
(0.0126887 1.93255e-05 2.25904e-26)
(0.0125881 1.88525e-05 5.16932e-22)
(0.0124901 1.82318e-05 0)
(0.0123956 1.75321e-05 -1.13488e-21)
(0.0123047 1.67087e-05 3.74372e-23)
(0.0122185 1.58343e-05 -3.7256e-23)
(0.0121369 1.49059e-05 3.94023e-23)
(0.0120604 1.39519e-05 3.18603e-22)
(0.011989 1.29768e-05 -6.03031e-23)
(0.0119227 1.19991e-05 -3.46734e-25)
(0.0118616 1.10307e-05 6.81036e-22)
(0.0118056 1.0078e-05 6.8571e-22)
(0.0117546 9.1483e-06 1.52682e-25)
(0.0117084 8.24741e-06 -2.07969e-23)
(0.011667 7.37916e-06 0)
(0.01163 6.54791e-06 0)
(0.0115975 5.75605e-06 1.65146e-22)
(0.0115692 4.99561e-06 -1.63885e-22)
(0.0115448 4.2808e-06 -1.62306e-22)
(0.0115242 3.60432e-06 0)
(0.0115072 2.98545e-06 -3.0682e-22)
(0.0114937 2.38665e-06 -9.79093e-24)
(0.0114833 1.82827e-06 -1.53414e-22)
(0.011476 1.31288e-06 -7.53287e-23)
(0.0114714 8.21428e-07 0)
(0.0114694 3.7714e-07 4.0637e-23)
(0.0114701 -4.27524e-08 6.62277e-23)
(0.0114731 -4.3581e-07 3.6627e-23)
(0.0114784 -7.96711e-07 -3.57341e-23)
(0.0114858 -1.13441e-06 0)
(0.0114953 -1.44323e-06 9.92449e-25)
(0.0115066 -1.72591e-06 -1.44462e-23)
(0.0115196 -1.98247e-06 -1.58426e-23)
(0.011534 -2.2042e-06 -2.87783e-23)
(0.0115497 -2.3953e-06 0)
(0.0115666 -2.55045e-06 0)
(0.0115843 -2.65677e-06 5.11804e-23)
(0.0116026 -2.71264e-06 9.49499e-23)
(0.0116209 -2.69318e-06 9.64391e-23)
(0.0116388 -2.57639e-06 -4.44412e-23)
(0.0116555 -2.324e-06 7.91044e-23)
(0.0116702 -1.87151e-06 -7.4391e-23)
(0.0116819 -1.20243e-06 0)
(0.0116894 -2.39895e-07 0)
(0.0116912 1.07826e-06 1.37795e-22)
(0.0116855 2.7768e-06 -6.78728e-23)
(0.0116703 4.93091e-06 0)
(0.0116434 7.52656e-06 -5.88709e-24)
(0.0116026 1.05045e-05 9.54674e-23)
(0.011546 1.36997e-05 7.87693e-23)
(0.0114719 1.68514e-05 0)
(0.0113797 1.95809e-05 1.11588e-22)
(0.0112701 2.14525e-05 4.47299e-24)
(0.0111458 2.20868e-05 -7.3341e-24)
(0.0110115 2.12548e-05 2.80987e-24)
(0.0108741 1.89399e-05 0)
(0.0107423 1.54261e-05 0)
(0.010624 1.11215e-05 -6.74179e-23)
(0.0105264 6.37332e-06 2.16904e-24)
(0.0104549 1.60236e-06 1.28629e-22)
(0.0104122 -3.11421e-06 1.04061e-23)
(0.0103999 -7.46398e-06 2.19372e-22)
(0.0104169 -1.15648e-05 2.53385e-22)
(0.0104628 -1.5257e-05 -2.85419e-22)
(0.0105348 -1.86026e-05 0)
(0.0106312 -2.15808e-05 0)
(0.0107493 -2.41622e-05 0)
(0.0108859 -2.63929e-05 -3.87541e-22)
(0.0110384 -2.82475e-05 -8.11998e-22)
(0.0112033 -2.96931e-05 0)
(0.0113776 -3.07817e-05 4.33329e-22)
(0.0115577 -3.13244e-05 -1.74231e-24)
(0.0117396 -3.1461e-05 -8.90563e-22)
(0.0119218 -3.12267e-05 0)
(0.0121007 -3.03171e-05 0)
(0.0122739 -2.92703e-05 8.71689e-22)
(0.0124416 -2.73285e-05 -2.11904e-22)
(0.0125975 -2.51338e-05 4.07593e-22)
(0.0127497 -2.29696e-05 -9.67286e-23)
(0.0129044 -2.15194e-05 3.55682e-25)
(0.0156629 -2.22604e-05 0)
(0.0157653 -1.94503e-05 -1.39533e-22)
(0.0158663 -1.408e-05 0)
(0.0159471 -9.40527e-06 0)
(0.0160168 -4.65458e-06 -1.70067e-22)
(0.0160629 3.45228e-07 -3.86792e-22)
(0.0160837 4.89775e-06 1.72839e-22)
(0.0160831 9.3452e-06 8.45184e-23)
(0.0160583 1.34399e-05 0)
(0.0160126 1.71139e-05 0)
(0.0159479 2.03544e-05 -3.52839e-24)
(0.0158668 2.31022e-05 8.37095e-24)
(0.0157719 2.53968e-05 -3.56784e-22)
(0.0156661 2.71918e-05 -4.32152e-22)
(0.0155521 2.85244e-05 0)
(0.015432 2.9405e-05 1.92133e-23)
(0.0153081 2.99057e-05 -1.90587e-23)
(0.015182 3.00167e-05 7.52036e-22)
(0.0150559 2.98176e-05 -8.56215e-22)
(0.0149308 2.93375e-05 1.26552e-21)
(0.0148083 2.86185e-05 5.49683e-23)
(0.014689 2.76926e-05 -2.58133e-23)
(0.0145737 2.6636e-05 4.65988e-22)
(0.014463 2.54189e-05 -2.93678e-23)
(0.0143576 2.41174e-05 -3.12266e-23)
(0.0142576 2.2741e-05 -6.27473e-23)
(0.0141634 2.13238e-05 5.42317e-22)
(0.0140751 1.98776e-05 4.84699e-22)
(0.0139927 1.84263e-05 5.54473e-22)
(0.0139163 1.69865e-05 -5.25387e-22)
(0.0138457 1.55688e-05 -2.63544e-22)
(0.013781 1.41835e-05 -2.63709e-22)
(0.0137218 1.28391e-05 -5.09943e-22)
(0.0136681 1.15406e-05 -1.63473e-23)
(0.0136196 1.02946e-05 0)
(0.0135763 9.10563e-06 -2.18854e-26)
(0.0135379 7.96272e-06 0)
(0.0135041 6.88344e-06 0)
(0.0134748 5.85928e-06 -2.49826e-22)
(0.0134498 4.91041e-06 1.23089e-22)
(0.0134289 3.99442e-06 -2.42184e-22)
(0.0134119 3.13418e-06 6.23807e-27)
(0.0133987 2.33129e-06 0)
(0.013389 1.56344e-06 3.54612e-24)
(0.0133826 8.58553e-07 -3.5223e-24)
(0.0133795 1.88352e-07 -5.46376e-23)
(0.0133795 -4.43554e-07 -2.66493e-23)
(0.0133826 -1.03292e-06 5.1916e-23)
(0.0133884 -1.58871e-06 -1.2623e-23)
(0.013397 -2.1056e-06 -7.66101e-25)
(0.0134081 -2.58595e-06 1.18829e-23)
(0.0134216 -3.03034e-06 -1.41592e-24)
(0.0134374 -3.42722e-06 2.22599e-23)
(0.0134551 -3.78112e-06 1.36088e-24)
(0.0134748 -4.08393e-06 0)
(0.013496 -4.31996e-06 -1.18647e-22)
(0.0135186 -4.48322e-06 -7.57224e-23)
(0.013542 -4.54335e-06 -1.40186e-22)
(0.0135659 -4.47261e-06 -4.40676e-24)
(0.0135897 -4.23055e-06 1.30551e-22)
(0.0136127 -3.73723e-06 5.79316e-23)
(0.0136344 -2.96872e-06 -1.12334e-22)
(0.0136538 -1.83485e-06 -1.08708e-22)
(0.0136699 -2.62304e-07 -1.01236e-22)
(0.0136816 1.77838e-06 0)
(0.0136878 4.37047e-06 5.10901e-24)
(0.0136871 7.49914e-06 -9.77077e-24)
(0.0136786 1.10993e-05 -2.01967e-22)
(0.0136614 1.49828e-05 1.19802e-22)
(0.0136347 1.88596e-05 6.01485e-24)
(0.0135984 2.22984e-05 -1.82621e-22)
(0.013553 2.47896e-05 6.85045e-23)
(0.0134995 2.58569e-05 0)
(0.0134398 2.51638e-05 0)
(0.0133768 2.26023e-05 0)
(0.0133144 1.84152e-05 0)
(0.0132568 1.30285e-05 1.79395e-22)
(0.0132086 6.87096e-06 -1.31808e-23)
(0.0131749 4.63982e-07 -1.09927e-22)
(0.013159 -6.0064e-06 2.90843e-22)
(0.0131646 -1.21331e-05 4.71191e-23)
(0.0131923 -1.79603e-05 -6.72602e-22)
(0.0132435 -2.32823e-05 -3.13493e-23)
(0.013317 -2.81154e-05 1.66473e-23)
(0.0134124 -3.24096e-05 1.98634e-23)
(0.0135279 -3.61147e-05 -1.987e-23)
(0.0136608 -3.92573e-05 1.12783e-23)
(0.0138082 -4.18054e-05 1.45486e-21)
(0.0139669 -4.37147e-05 -7.57998e-22)
(0.0141334 -4.50351e-05 6.29514e-24)
(0.0143042 -4.55771e-05 -6.25408e-24)
(0.0144747 -4.54751e-05 8.22178e-22)
(0.0146437 -4.47934e-05 0)
(0.0148079 -4.32293e-05 -6.37853e-24)
(0.0149647 -4.13216e-05 4.03412e-22)
(0.0151155 -3.83815e-05 -7.78551e-22)
(0.0152547 -3.50278e-05 -3.77215e-22)
(0.0153914 -3.16481e-05 -1.78835e-22)
(0.015531 -2.89675e-05 0)
(0.0179523 -2.70813e-05 6.87686e-23)
(0.0180254 -2.28239e-05 -1.24409e-22)
(0.0180971 -1.56473e-05 -2.1755e-22)
(0.0181487 -9.28218e-06 -3.69886e-22)
(0.0181882 -2.86983e-06 -2.06171e-24)
(0.0182036 3.7023e-06 4.53997e-22)
(0.0181931 9.83724e-06 -4.39546e-25)
(0.0181606 1.57072e-05 -1.46759e-22)
(0.0181038 2.11152e-05 6.9833e-24)
(0.018026 2.59582e-05 1.84727e-24)
(0.0179296 3.02084e-05 -1.82739e-24)
(0.0178175 3.37988e-05 4.5441e-22)
(0.0176923 3.67791e-05 3.07029e-22)
(0.0175572 3.90966e-05 2.12177e-24)
(0.0174149 4.07981e-05 2.0143e-24)
(0.0172677 4.19056e-05 -4.9473e-22)
(0.0171179 4.24937e-05 3.50548e-23)
(0.016967 4.25778e-05 -1.19685e-21)
(0.0168172 4.22402e-05 6.24231e-22)
(0.0166697 4.15321e-05 -7.05317e-22)
(0.0165259 4.0503e-05 8.69279e-23)
(0.0163865 3.92025e-05 2.2956e-24)
(0.0162523 3.77125e-05 -4.58747e-23)
(0.0161237 3.6025e-05 4.91822e-23)
(0.0160016 3.42161e-05 -8.64765e-22)
(0.0158859 3.23098e-05 7.10562e-25)
(0.015777 3.03457e-05 -4.59932e-22)
(0.015675 2.83446e-05 4.38734e-22)
(0.0155798 2.63355e-05 -3.90221e-22)
(0.0154914 2.434e-05 -8.88888e-22)
(0.0154098 2.23737e-05 2.60361e-23)
(0.0153347 2.04498e-05 4.18948e-22)
(0.015266 1.85801e-05 4.04789e-22)
(0.0152036 1.67712e-05 1.29651e-23)
(0.0151471 1.50313e-05 -1.29144e-23)
(0.0150964 1.33675e-05 -1.92057e-22)
(0.0150513 1.17666e-05 -4.05572e-22)
(0.0150116 1.0248e-05 2.00437e-22)
(0.0149769 8.80197e-06 1.97813e-22)
(0.0149472 7.44805e-06 0)
(0.0149223 6.14251e-06 1.97766e-22)
(0.0149019 4.9089e-06 8.8321e-23)
(0.0148859 3.74773e-06 5.74136e-24)
(0.0148741 2.6344e-06 -8.51499e-24)
(0.0148662 1.59922e-06 4.44539e-26)
(0.0148623 6.1026e-07 4.80659e-26)
(0.014862 -3.28195e-07 2.67036e-24)
(0.0148655 -1.2136e-06 -2.06307e-23)
(0.0148723 -2.05443e-06 -1.00409e-23)
(0.0148826 -2.8463e-06 0)
(0.014896 -3.59105e-06 1.8939e-23)
(0.0149125 -4.28983e-06 0)
(0.0149319 -4.92909e-06 2.18189e-24)
(0.014954 -5.51319e-06 -2.17603e-24)
(0.0149787 -6.03163e-06 0)
(0.0150057 -6.46694e-06 6.33965e-23)
(0.0150348 -6.80915e-06 0)
(0.0150657 -7.0251e-06 1.7436e-22)
(0.0150981 -7.08384e-06 0)
(0.0151314 -6.94588e-06 -9.88884e-23)
(0.0151654 -6.52238e-06 9.32757e-23)
(0.0151996 -5.78491e-06 5.66212e-24)
(0.0152335 -4.63763e-06 8.24729e-23)
(0.0152665 -3.00479e-06 0)
(0.015298 -8.58195e-07 0)
(0.0153275 1.88148e-06 4.17154e-24)
(0.0153546 5.19168e-06 -1.32277e-22)
(0.0153788 8.99619e-06 1.08401e-22)
(0.0154002 1.30864e-05 -9.48662e-23)
(0.0154184 1.71555e-05 4.9449e-24)
(0.0154339 2.075e-05 6.74296e-23)
(0.0154468 2.33404e-05 -5.62494e-23)
(0.0154577 2.44283e-05 -1.78931e-24)
(0.0154672 2.365e-05 2.4131e-24)
(0.0154764 2.08639e-05 5.77082e-25)
(0.0154871 1.62649e-05 0)
(0.0155008 1.02309e-05 -9.77907e-23)
(0.0155197 3.18373e-06 -1.07873e-23)
(0.0155467 -4.35067e-06 1.11693e-23)
(0.0155838 -1.21143e-05 -2.40783e-22)
(0.0156336 -1.96481e-05 -1.81027e-23)
(0.0156969 -2.68976e-05 3.94212e-22)
(0.0157752 -3.3613e-05 -2.50204e-23)
(0.0158682 -3.97452e-05 -1.55575e-23)
(0.0159759 -4.51983e-05 1.04899e-21)
(0.0160975 -4.98844e-05 1.17615e-21)
(0.0162309 -5.37993e-05 -1.85019e-23)
(0.0163742 -5.68946e-05 -6.46946e-22)
(0.0165243 -5.91072e-05 2.03187e-21)
(0.0166783 -6.04757e-05 1.40401e-21)
(0.0168329 -6.08279e-05 1.43793e-21)
(0.0169839 -6.02739e-05 2.8319e-24)
(0.01713 -5.89141e-05 0)
(0.0172691 -5.64802e-05 0)
(0.0173986 -5.34645e-05 -7.23454e-22)
(0.0175209 -4.93415e-05 2.65143e-24)
(0.0176311 -4.46043e-05 -6.80302e-22)
(0.0177388 -3.9754e-05 1.60467e-22)
(0.017849 -3.55496e-05 -2.94835e-28)
(0.0198594 -3.03023e-05 1.58635e-26)
(0.0198962 -2.43742e-05 4.36904e-22)
(0.0199314 -1.52894e-05 1.86474e-22)
(0.0199465 -7.10384e-06 6.46619e-22)
(0.0199487 1.0789e-06 -5.19781e-22)
(0.0199269 9.29746e-06 -1.94944e-22)
(0.0198798 1.70895e-05 0)
(0.0198112 2.44277e-05 6.29124e-23)
(0.0197193 3.1179e-05 -5.87642e-24)
(0.0196078 3.72035e-05 -1.33154e-22)
(0.0194792 4.24595e-05 -6.58711e-24)
(0.0193365 4.68751e-05 4.52711e-24)
(0.0191825 5.0509e-05 4.94434e-22)
(0.0190204 5.33065e-05 -5.91276e-22)
(0.0188528 5.53238e-05 1.34431e-23)
(0.018682 5.65974e-05 3.73575e-22)
(0.0185102 5.72064e-05 0)
(0.018339 5.71939e-05 1.4617e-21)
(0.0181704 5.66426e-05 -3.06557e-23)
(0.0180056 5.56272e-05 0)
(0.0178457 5.42067e-05 0)
(0.0176915 5.24486e-05 0)
(0.0175438 5.04385e-05 0)
(0.0174028 4.81945e-05 6.28697e-22)
(0.0172692 4.57916e-05 6.43067e-22)
(0.0171431 4.32697e-05 -6.96049e-22)
(0.0170248 4.06737e-05 7.04831e-22)
(0.0169141 3.80341e-05 -6.71064e-22)
(0.0168111 3.5385e-05 0)
(0.0167157 3.27533e-05 6.79306e-22)
(0.0166277 3.01595e-05 -6.59321e-22)
(0.016547 2.76199e-05 -3.61524e-22)
(0.0164733 2.51495e-05 2.12751e-23)
(0.0164064 2.27565e-05 -3.59234e-22)
(0.0163462 2.0451e-05 0)
(0.0162923 1.82415e-05 -1.04175e-23)
(0.0162445 1.61138e-05 3.4087e-22)
(0.0162026 1.40873e-05 -1.63487e-22)
(0.0161664 1.21517e-05 -3.22956e-22)
(0.0161356 1.03254e-05 0)
(0.0161102 8.56546e-06 0)
(0.0160898 6.89413e-06 0)
(0.0160743 5.31073e-06 -1.56393e-22)
(0.0160634 3.78915e-06 4.68335e-24)
(0.0160571 2.3603e-06 7.29442e-23)
(0.0160552 9.89796e-07 0)
(0.0160576 -3.17784e-07 2.15902e-24)
(0.0160642 -1.56206e-06 -3.72699e-23)
(0.0160747 -2.7508e-06 1.76527e-23)
(0.0160892 -3.88102e-06 -1.25942e-24)
(0.0161074 -4.95415e-06 -1.64261e-23)
(0.0161293 -5.97199e-06 1.90443e-24)
(0.0161547 -6.91974e-06 -5.81743e-23)
(0.0161834 -7.80164e-06 -1.81376e-24)
(0.0162154 -8.60549e-06 -5.50892e-23)
(0.0162505 -9.31331e-06 0)
(0.0162884 -9.91225e-06 3.11499e-24)
(0.016329 -1.03689e-05 -1.00729e-22)
(0.0163721 -1.06509e-05 9.89595e-23)
(0.0164173 -1.07203e-05 -5.6993e-24)
(0.0164645 -1.04854e-05 -8.42685e-23)
(0.0165134 -9.91775e-06 8.44501e-23)
(0.0165639 -8.92027e-06 -4.84546e-24)
(0.0166156 -7.42034e-06 0)
(0.0166685 -5.39364e-06 0)
(0.0167224 -2.77025e-06 1.27412e-22)
(0.0167772 4.18701e-07 9.60603e-23)
(0.0168331 4.08713e-06 -1.91412e-22)
(0.0168903 8.01358e-06 -1.75235e-22)
(0.0169487 1.18866e-05 4.26115e-24)
(0.0170087 1.52491e-05 1.17397e-22)
(0.0170703 1.75737e-05 -9.36708e-23)
(0.0171333 1.83626e-05 -6.98566e-23)
(0.0171977 1.72479e-05 3.20091e-24)
(0.0172634 1.4078e-05 -1.31428e-24)
(0.0173311 9.02141e-06 4.22071e-23)
(0.0174011 2.42697e-06 -6.35895e-24)
(0.0174744 -5.28198e-06 -2.44085e-22)
(0.0175527 -1.36013e-05 0)
(0.0176368 -2.22272e-05 4.33894e-22)
(0.0177287 -3.0708e-05 -5.28093e-22)
(0.0178281 -3.89127e-05 6.22867e-22)
(0.0179365 -4.65801e-05 -2.3592e-23)
(0.0180531 -5.35933e-05 2.40393e-23)
(0.0181781 -5.98244e-05 -7.23849e-25)
(0.0183104 -6.51524e-05 1.51452e-23)
(0.0184483 -6.95223e-05 -3.2826e-23)
(0.01859 -7.28657e-05 3.49021e-23)
(0.0187332 -7.51014e-05 -1.8308e-23)
(0.0188751 -7.6248e-05 -1.22322e-21)
(0.0190131 -7.61588e-05 -2.6426e-24)
(0.0191433 -7.49077e-05 -1.28088e-21)
(0.0192651 -7.26305e-05 5.0612e-24)
(0.0193768 -6.91165e-05 -5.0449e-24)
(0.0194764 -6.47796e-05 -4.93659e-24)
(0.0195668 -5.93107e-05 4.81509e-24)
(0.019644 -5.3016e-05 5.97174e-22)
(0.0197176 -4.65061e-05 1.13148e-24)
(0.0197923 -4.05622e-05 0)
(0.0214085 -3.16265e-05 -5.27644e-23)
(0.021408 -2.38545e-05 1.28823e-25)
(0.0214061 -1.28248e-05 3.32209e-22)
(0.021384 -2.75049e-06 -2.82293e-22)
(0.0213485 7.2516e-06 4.45464e-22)
(0.02129 1.71442e-05 3.37598e-22)
(0.0212074 2.66029e-05 2.21349e-22)
(0.0211046 3.54009e-05 1.00907e-25)
(0.0209805 4.34715e-05 -9.89917e-26)
(0.0208388 5.0638e-05 1.13255e-22)
(0.0206822 5.68484e-05 2.17345e-22)
(0.0205137 6.20292e-05 -3.17636e-22)
(0.0203361 6.62472e-05 -4.04564e-22)
(0.0201525 6.94504e-05 -2.36835e-23)
(0.0199653 7.17055e-05 3.62657e-23)
(0.0197768 7.30645e-05 -6.53764e-22)
(0.0195891 7.3612e-05 -2.14236e-23)
(0.0194036 7.34196e-05 -7.88058e-22)
(0.0192223 7.25732e-05 2.73732e-23)
(0.0190461 7.11707e-05 -2.69731e-23)
(0.0188761 6.92799e-05 0)
(0.018713 6.69862e-05 0)
(0.0185574 6.43796e-05 0)
(0.0184095 6.15038e-05 4.87081e-22)
(0.0182699 5.84322e-05 3.27058e-23)
(0.0181386 5.52215e-05 -5.4256e-22)
(0.0180157 5.19218e-05 -5.51012e-22)
(0.0179012 4.85733e-05 5.92577e-22)
(0.017795 4.52152e-05 5.27459e-22)
(0.017697 4.18797e-05 0)