/*--------------------------------*- C++ -*----------------------------------*\
| =========                 |                                                 |
| \\      /  F ield         | OpenFOAM: The Open Source CFD Toolbox           |
|  \\    /   O peration     | Version:  2.3.x                                 |
|   \\  /    A nd           | Web:      www.OpenFOAM.org                      |
|    \\/     M anipulation  |                                                 |
\*---------------------------------------------------------------------------*/
FoamFile
{
    version     2.0;
    format      ascii;
    class       volVectorField;
    location    "0";
    object      UDNS;
}
// * * * * * * * * * * * * * * * * * * * * * * * * * * * * * * * * * * * * * //

dimensions      [0 1 -1 0 0 0 0];

internalField   nonuniform List<vector> 
14751
(
(1.523290435424846630e-03 -3.029665367928005511e-07 4.743418893013463597e-06)
(1.532725807651415337e-03 -1.962955281046109063e-07 4.781023985939310115e-06)
(1.538982578640266715e-03 -7.866780053704188005e-08 4.819090614290308889e-06)
(1.541929249771839972e-03 -3.148869568082481739e-08 4.846606161669757538e-06)
(1.541515499153522581e-03 5.832519754013991488e-09 4.867392793536018316e-06)
(1.537799849846101545e-03 9.004115245566567619e-08 4.891478439846596638e-06)
(1.530845254880624498e-03 2.244293203220509000e-07 4.925850244785307180e-06)
(1.520771873281977086e-03 3.537221687265814176e-07 4.976429080771171768e-06)
(1.507778912648564344e-03 3.637111147676625556e-07 5.020056200773590903e-06)
(1.492099025727757801e-03 3.617054744334749548e-07 5.047196855301591015e-06)
(1.474006290409008183e-03 4.291798474829871960e-07 5.052532740546476944e-06)
(1.453933472208890181e-03 5.474519202279402969e-07 5.040448609769615503e-06)
(1.432173366128826168e-03 6.444159138503850208e-07 5.026530344430715436e-06)
(1.409084264516515146e-03 5.977710933552777850e-07 5.009643985468166188e-06)
(1.385033850483856658e-03 5.379921867404425368e-07 4.993040277455689942e-06)
(1.360351647359915768e-03 5.751055908970759283e-07 4.963497372535282675e-06)
(1.335269917137477114e-03 6.632892107769491221e-07 4.928436824583479352e-06)
(1.310050617403978740e-03 7.160383304679386154e-07 4.900081582207588501e-06)
(1.284947528009168331e-03 6.297358418057409123e-07 4.867314286759328101e-06)
(1.260161541973093451e-03 5.399475765256639975e-07 4.831903272963009830e-06)
(1.235843150309771498e-03 5.593183959958964561e-07 4.802247621113574629e-06)
(1.212103878691500819e-03 6.227330511367766782e-07 4.776020866453028563e-06)
(1.188996242404593466e-03 6.472976015964291564e-07 4.752912999114082726e-06)
(1.166606641694298546e-03 5.517527558651922637e-07 4.753635246212640695e-06)
(1.145070465442031256e-03 4.587632395712967337e-07 4.729044976273983445e-06)
(1.124433182581448211e-03 4.721511626029665271e-07 4.683127417275847219e-06)
(1.104728865832650285e-03 5.158684569666378480e-07 4.629738298067788600e-06)
(1.085890709692662005e-03 5.222451581690818247e-07 4.525238721848307368e-06)
(1.067910043401275669e-03 4.380906192758212936e-07 4.396774790012551560e-06)
(1.050807329223514292e-03 3.605425545308983059e-07 4.296062394539085648e-06)
(1.034625435993396288e-03 3.724283111808641076e-07 4.244600033795667597e-06)
(1.019301027692270153e-03 4.020917417138430895e-07 4.265057394928173906e-06)
(1.004571965935207147e-03 4.053849250333174778e-07 4.383852411615278726e-06)
(9.902076669951111621e-04 3.515569464186528555e-07 4.526837701383726122e-06)
(9.763360645749963491e-04 3.043929557897219174e-07 4.654269754175161153e-06)
(9.629078150411734833e-04 3.188813395916287908e-07 4.749584379638974127e-06)
(9.499992173697591104e-04 3.339048669846028122e-07 4.803816585305687399e-06)
(9.374659188010708811e-04 3.293155552824721035e-07 4.816725705644827915e-06)
(9.252401287265985246e-04 3.027156490450765453e-07 4.882197388133587132e-06)
(9.132069640328825590e-04 2.856025235885241662e-07 4.937314735401691738e-06)
(9.013058351124542643e-04 2.898604004732123711e-07 4.968589381441393609e-06)
(8.898806559140904140e-04 2.846990856819982301e-07 4.969312211182729935e-06)
(8.789298702819203953e-04 2.688441166773763961e-07 5.001795584589752814e-06)
(8.683926922417607155e-04 2.605948185554721234e-07 4.992707434717106709e-06)
(8.582142572858141201e-04 2.625567156446701438e-07 4.873804374765785353e-06)
(8.482614309652333371e-04 2.491575989991912039e-07 4.777236760469214028e-06)
(8.386340968323007438e-04 2.255959899819102026e-07 4.714458882873551913e-06)
(8.296108268554442961e-04 2.055688881243652916e-07 4.726720320433374255e-06)
(8.210001501808611348e-04 2.171613823893236370e-07 4.715270855309098662e-06)
(8.127367714789685916e-04 2.351343754478825180e-07 4.667661100409183123e-06)
(8.049642406455675189e-04 1.930407095059350205e-07 4.503906430848736345e-06)
(7.979635056277919721e-04 1.424458841944056352e-07 4.419391708333351065e-06)
(7.915262966347331314e-04 1.276704343198491076e-07 4.295823598719044434e-06)
(7.858239836501888093e-04 1.460275386479515452e-07 4.123452369854045433e-06)
(7.809727020071819889e-04 1.620424507755551792e-07 3.946633401917583141e-06)
(7.770423035002459091e-04 9.356728378621397082e-08 3.821836577732901610e-06)
(7.742198177621734427e-04 1.952722820272940158e-08 3.843282352904624037e-06)
(7.724859094299032928e-04 -8.910689964073659991e-11 3.912502298203808720e-06)
(7.718419573941460565e-04 1.855333280504431709e-08 3.929204988425011799e-06)
(7.726333026662637968e-04 2.811555673062832863e-08 3.930648539413354728e-06)
(7.747078827417595934e-04 -5.745352836662692972e-08 3.977981634685779838e-06)
(7.780549942966467816e-04 -1.500401419274685930e-07 3.997784039226988196e-06)
(7.827302841458037104e-04 -1.681128223842684683e-07 4.052639635463134591e-06)
(7.888635775464217107e-04 -1.480571088611505859e-07 4.123855957661806139e-06)
(7.964972799152339640e-04 -1.301826933072095788e-07 4.180733008084932776e-06)
(8.053320702013698571e-04 -2.316608125767910876e-07 4.249086649392664001e-06)
(8.157811351071339373e-04 -3.388915310782790072e-07 4.328115128757044103e-06)
(8.276918497808940633e-04 -3.511026173520113065e-07 4.386773365370066918e-06)
(8.410554126662694863e-04 -3.186300890277179822e-07 4.403545834649531430e-06)
(8.558209213999741971e-04 -3.098451316797256809e-07 4.349508243632646335e-06)
(8.718620933791821487e-04 -4.102126528980293105e-07 4.278437140195070870e-06)
(8.890739889909005577e-04 -5.067489586122619768e-07 4.201612467017494774e-06)
(9.072308014208105460e-04 -4.961913349688630922e-07 4.165428588338002473e-06)
(9.262756366429011077e-04 -4.507750025939131838e-07 4.163103809041610231e-06)
(9.462020083678293701e-04 -4.359741796070169214e-07 4.176478155681587307e-06)
(9.668703290517000493e-04 -5.228605167507312606e-07 4.159606873569144097e-06)
(9.882387679956531907e-04 -6.066396447860457977e-07 4.127053501945977872e-06)
(1.010313818598985568e-03 -5.859956619750710990e-07 4.108322904234379294e-06)
(1.032984321478372164e-03 -5.368091538829386196e-07 4.107909677991032296e-06)
(1.056262961951050586e-03 -5.289878122096540793e-07 4.109967910942082211e-06)
(1.080079718719039860e-03 -6.010652954482655594e-07 4.111419711698720194e-06)
(1.104331571881950712e-03 -6.697758324681399966e-07 4.100364685905945213e-06)
(1.129079505251746537e-03 -6.442580532051861128e-07 4.071485572037358887e-06)
(1.154215639309875974e-03 -6.014432762953919834e-07 4.040541386221638552e-06)
(1.179717268916679121e-03 -5.986827057465518938e-07 4.020258493365395152e-06)
(1.205603707460748807e-03 -6.549072024775773398e-07 4.008748375445893477e-06)
(1.231785296405451613e-03 -7.011157322638637302e-07 4.022970083328802375e-06)
(1.258168570598826481e-03 -6.742114115741588844e-07 4.062059780451260020e-06)
(1.284635747695956698e-03 -6.421743778160404167e-07 4.128035177088093259e-06)
(1.311049179715584540e-03 -6.367092524908836260e-07 4.214661511274413579e-06)
(1.337235224049099138e-03 -6.559736569007849080e-07 4.306827129670791273e-06)
(1.363078055226260403e-03 -6.625989817546100326e-07 4.385151669365951984e-06)
(1.388374916233574632e-03 -6.311148909819938782e-07 4.451563754875376673e-06)
(1.412843857432039213e-03 -5.988367782132777009e-07 4.505346325540968705e-06)
(1.436118946780931332e-03 -5.681138361484459269e-07 4.549261704524177658e-06)
(1.457849001309061577e-03 -5.260798278724728581e-07 4.592849725180718030e-06)
(1.477736021297389310e-03 -4.658566388179109992e-07 4.641539290657944233e-06)
(1.495482858699338866e-03 -4.185918466791829572e-07 4.685716127379063800e-06)
(1.510795544538396252e-03 -3.732134148891868533e-07 4.717575162669487908e-06)
(4.638422802394837757e-03 -9.223314913827787780e-07 1.444372144815951935e-05)
(4.667152567654554371e-03 -5.974833274619255787e-07 1.455822967118069623e-05)
(4.686203354037833668e-03 -2.397662045522504235e-07 1.467414212253927279e-05)
(4.702884998334112485e-03 -9.654866072007666861e-08 1.478216300861908131e-05)
(4.709328021097139265e-03 1.696087682657933396e-08 1.486990764215929652e-05)
(4.705662366136114695e-03 2.766379555814163993e-07 1.496794308732982912e-05)
(4.692029973947394426e-03 6.894664821696785823e-07 1.509778871705701224e-05)
(4.668754872563932352e-03 1.084413309285278837e-06 1.527770149223745994e-05)
(4.636402023397738145e-03 1.116796928701660198e-06 1.543672054670778892e-05)
(4.595643758819179317e-03 1.112344337846754408e-06 1.554539050300531960e-05)
(4.547279113668210686e-03 1.326439454397706628e-06 1.558704696241296743e-05)
(4.492607606183888699e-03 1.695162910177649717e-06 1.557495387419372335e-05)
(4.432541023890582133e-03 1.992014914833791539e-06 1.555708615593887626e-05)
(4.368123958401621751e-03 1.850568444586654384e-06 1.552987268616307288e-05)
(4.300484011238480016e-03 1.667368589238354857e-06 1.550336049323865770e-05)
(4.230654313487847151e-03 1.791234267332714753e-06 1.543641433959015046e-05)
(4.158899487860734205e-03 2.073496402503558126e-06 1.535178627399872532e-05)
(4.086247175231788598e-03 2.244882025927241682e-06 1.528763627994291958e-05)
(4.013799638757230455e-03 1.988707034756279309e-06 1.520925744243850451e-05)
(3.936436696436177579e-03 1.708794374339732820e-06 1.509839131914444845e-05)
(3.866129581765563941e-03 1.779834269131224036e-06 1.502915235626123301e-05)
(3.797547543116980718e-03 1.992253493968949080e-06 1.497046968507560797e-05)
(3.730676983636067607e-03 2.066124232387536870e-06 1.492106538019905396e-05)
(3.665882368774239525e-03 1.784919272082573514e-06 1.494620281764327038e-05)
(3.598370532066871071e-03 1.492956614829573370e-06 1.486966980878219414e-05)
(3.538841934134315075e-03 1.534694616898684648e-06 1.474838441074631405e-05)
(3.477072150798985167e-03 1.677422116653776234e-06 1.458070531965237157e-05)
(3.422909468802172884e-03 1.699855577239847886e-06 1.427431267215832748e-05)
(3.366496566116263314e-03 1.425949991982058841e-06 1.387036770544742256e-05)
(3.317660331507645173e-03 1.197453290479460183e-06 1.357355122104783102e-05)
(3.266710017655749185e-03 1.223013673011520628e-06 1.341111106271763248e-05)
(3.223436717034935863e-03 1.328063188666507058e-06 1.349717181607788845e-05)
(3.177004732088458631e-03 1.325831752286392914e-06 1.387277293784803579e-05)
(3.136471321669459349e-03 1.170780692970129626e-06 1.434899330047374215e-05)
(3.092768720174993071e-03 1.021112676815748085e-06 1.475243769427481998e-05)
(3.050402671847187060e-03 1.057554716584220327e-06 1.505563927649464952e-05)
(3.009728381531422917e-03 1.102313408911636736e-06 1.522576978234621609e-05)
(2.974791961487924068e-03 1.091718791151234920e-06 1.529031175819471725e-05)
(2.936233852332908144e-03 1.008267539783241660e-06 1.549544470961288444e-05)
(2.898284304265568139e-03 9.544135951504811195e-07 1.567093416072162082e-05)
(2.860639691371250071e-03 9.664660749462860946e-07 1.577294421196263237e-05)
(2.829007962285502720e-03 9.531926764030869325e-07 1.580006748318718796e-05)
(2.794378778136262162e-03 9.013037778345367698e-07 1.590103739035407014e-05)
(2.761125426286043048e-03 8.729429862584296587e-07 1.586993880956516574e-05)
(2.729065361526760488e-03 8.787209602047453976e-07 1.549548654807265428e-05)
(2.697554305935318322e-03 8.356701452670323391e-07 1.518985898266128932e-05)
(2.667237648708215003e-03 7.571027770935427569e-07 1.499258902374389814e-05)
(2.638664961629295924e-03 6.903202653506855221e-07 1.502918367658177495e-05)
(2.611541949083159928e-03 7.297626568423838390e-07 1.499244489387199662e-05)
(2.585431692164256914e-03 7.767712735003667129e-07 1.484124794352166837e-05)
(2.560925194281995360e-03 6.414368985736729976e-07 1.432449938352866356e-05)
(2.538857403570120297e-03 4.793417723375838415e-07 1.405275096750626911e-05)
(2.518550077635862625e-03 4.378456381149837423e-07 1.365751866540598156e-05)
(2.500572675730851867e-03 4.802316359702196566e-07 1.310655321995825328e-05)
(2.485312032764483772e-03 5.246434992223128548e-07 1.254532470726825102e-05)
(2.472961896296732229e-03 3.051742617940232140e-07 1.215122123289049480e-05)
(2.464114541590175806e-03 6.740754704440301725e-08 1.222004145489319002e-05)
(2.458717149489451220e-03 -1.721824504142521276e-09 1.244293402896613012e-05)
(2.452738801129647310e-03 6.174189567275738828e-08 1.247688298614299932e-05)
(2.455349089803478789e-03 8.309026389972980441e-08 1.248204634918456296e-05)
(2.461963102170141443e-03 -2.023059927746250067e-07 1.263147206460355289e-05)
(2.472651903446632798e-03 -4.848467810254370083e-07 1.269477894273862463e-05)
(2.483418428709333048e-03 -5.473744255957779032e-07 1.284750521415695847e-05)
(2.502902355538999275e-03 -5.075114803411251999e-07 1.307452670826191935e-05)
(2.527126621962985653e-03 -4.435974407819769056e-07 1.325232029014137473e-05)
(2.555034061363977566e-03 -7.798733127975901567e-07 1.346520616634393940e-05)
(2.583887062190384776e-03 -1.103549220128491439e-06 1.369356583409432221e-05)
(2.621502010539867103e-03 -1.150089232674307806e-06 1.387873576664726460e-05)
(2.659322206972044092e-03 -1.050277066920013891e-06 1.391014920480577842e-05)
(2.705954293988688860e-03 -1.039214926804331344e-06 1.374043667033403593e-05)
(2.756606404065555307e-03 -1.345099997418343997e-06 1.351599060879589977e-05)
(2.806187643583438196e-03 -1.652481405918201131e-06 1.325309919293109232e-05)
(2.858756011744420598e-03 -1.606866750667482402e-06 1.311786884427931533e-05)
(2.918695568352252211e-03 -1.478614264917831759e-06 1.311120535450761126e-05)
(2.976480342510013071e-03 -1.421813972996950744e-06 1.313303407682447289e-05)
(3.041423088867167661e-03 -1.686167729410173783e-06 1.307989635076910211e-05)
(3.103411148993364017e-03 -1.946136978142875801e-06 1.295767748862914485e-05)
(3.167587346002653965e-03 -1.877552373325985030e-06 1.287838490941311365e-05)
(3.238515024037805570e-03 -1.719047970486803095e-06 1.287692292413743369e-05)
(3.306133005841958589e-03 -1.685770265093644623e-06 1.286310705373436210e-05)
(3.375222637622046079e-03 -1.896272547197063910e-06 1.284719711571146471e-05)
(3.445431130585813965e-03 -2.099561311321686311e-06 1.279251494132709597e-05)
(3.517010629630877485e-03 -2.013518776961717609e-06 1.268248429726700450e-05)
(3.589570725582419495e-03 -1.872135118981795419e-06 1.256611846398158965e-05)
(3.662973505651919131e-03 -1.857033564792126959e-06 1.248293669702455292e-05)
(3.737330440773090415e-03 -2.028767922248381672e-06 1.242711156393584574e-05)
(3.812334065620970585e-03 -2.168629612861314908e-06 1.245105380307533376e-05)
(3.887724949714516619e-03 -2.083757227744705245e-06 1.255173106029089573e-05)
(3.963059542907047123e-03 -1.982135834406230452e-06 1.273487424335085427e-05)
(4.037994167024952508e-03 -1.960290936659580155e-06 1.298102288765305606e-05)
(4.111963038859827411e-03 -2.016512261488770190e-06 1.324337506922031263e-05)
(4.184617310972174944e-03 -2.033746383305650481e-06 1.346232034646124052e-05)
(4.255341589035856707e-03 -1.934654411816900798e-06 1.364398050619749796e-05)
(4.323277994193123162e-03 -1.832605716277480179e-06 1.378631074119346776e-05)
(4.387324251132342090e-03 -1.735607779408708543e-06 1.389795883250251026e-05)
(4.446421008792725976e-03 -1.604667400996206434e-06 1.400814936327586275e-05)
(4.507081085884944577e-03 -1.421050048236849998e-06 1.415665943091319800e-05)
(4.553737439713010336e-03 -1.274484100465725989e-06 1.426798691032637087e-05)
(4.600372162717874906e-03 -1.136427738965486130e-06 1.436501589262895770e-05)
(7.615819955259639853e-03 -2.716033738035378140e-06 2.440637695527177577e-05)
(7.657025363066296240e-03 -1.831681636938551740e-06 2.458974651159505088e-05)
(7.683437820764691881e-03 -1.003280886621210687e-06 2.479813413258963016e-05)
(7.708490274237517377e-03 -2.310227332318947257e-07 2.500747515330903895e-05)
(7.717152095702164635e-03 8.556851163316230598e-07 2.518087947678280525e-05)
(7.711120792367331597e-03 1.617774603385115687e-06 2.534571906623381136e-05)
(7.697675907702327541e-03 2.577824324652754770e-06 2.557123697903158888e-05)
(7.662060823729794495e-03 3.312439143530299424e-06 2.588074366645785437e-05)
(7.619255599916724062e-03 4.223723424745416262e-06 2.621820583266636331e-05)
(7.564906519604390478e-03 4.937609421193774177e-06 2.649940707948711835e-05)
(7.499552350800794270e-03 5.412376177431747442e-06 2.666872754195466965e-05)
(7.425771821811080406e-03 6.054429527911654854e-06 2.673330350126807938e-05)
(7.342342667695460519e-03 6.424878413308279795e-06 2.675426339226391343e-05)
(7.254440531680367288e-03 6.647275827135584941e-06 2.673997564827179378e-05)
(7.159927002726724186e-03 7.021198919813714696e-06 2.673693933395007624e-05)
(7.057966327583473087e-03 7.382932748297812409e-06 2.669103359437820065e-05)
(6.956493600205317096e-03 7.139919222677990247e-06 2.665709677082259949e-05)
(6.857711625294033407e-03 7.328949318742541063e-06 2.662367608272960115e-05)
(6.751556499630204100e-03 7.410276432974897726e-06 2.649120178901949549e-05)
(6.647640489788782248e-03 7.323568499631683119e-06 2.632300784035296188e-05)
(6.551303110343348682e-03 7.053343367480145032e-06 2.624538780172239248e-05)
(6.452558892923128397e-03 6.980688877879069558e-06 2.616320552231351314e-05)
(6.350520407549984335e-03 6.651049376515549041e-06 2.606577570420587424e-05)
(6.256107565371121781e-03 6.633133281277734469e-06 2.611272875479302591e-05)
(6.166779740449038726e-03 6.407952458395161635e-06 2.610905668153248082e-05)
(6.076189000832539835e-03 6.012038969781311243e-06 2.591998353860608872e-05)
(5.990566419694882266e-03 5.811920553447887848e-06 2.568324101871307589e-05)
(5.913072731013595262e-03 5.543549012928100639e-06 2.523647744291441762e-05)
(5.835368981755096121e-03 5.250263139054114985e-06 2.459357463817099732e-05)
(5.755789798847383079e-03 5.109319600308957272e-06 2.404328482605669833e-05)
(5.686205272109119691e-03 4.755773229773713393e-06 2.380389472529798311e-05)
(5.621047508894088003e-03 4.569962052760280957e-06 2.398325683808194780e-05)
(5.553747204189789580e-03 4.352862084938780556e-06 2.464206810491523716e-05)
(5.492266930762691735e-03 4.353136963789528962e-06 2.553476538384197804e-05)
(5.429314469614656379e-03 4.203952141229251835e-06 2.627006905045736266e-05)
(5.368227656047865060e-03 4.022915598266756185e-06 2.687036374445092650e-05)
(5.309091703046317501e-03 3.836962843719676314e-06 2.713462506382242258e-05)
(5.252968070286283091e-03 3.752684470649035898e-06 2.722086205442499234e-05)
(5.197254868978094453e-03 3.715985545419864124e-06 2.751007993836948097e-05)
(5.138105886231402082e-03 3.682838544232528941e-06 2.786523916774222271e-05)
(5.084455047751148399e-03 3.582843494154895474e-06 2.814296659317777442e-05)
(5.032856236017700657e-03 3.434007853274153725e-06 2.818681875138499596e-05)
(4.979634776321430027e-03 3.289854014503528361e-06 2.828546443140827655e-05)
(4.932503239045852098e-03 3.174460303673321259e-06 2.818142164893623213e-05)
(4.883342265834787060e-03 3.093129568005898081e-06 2.761358230795205875e-05)
(4.835064737980691342e-03 3.008018266635354141e-06 2.714718589725636540e-05)
(4.793263368250765682e-03 2.888230754490688838e-06 2.688938990345095939e-05)
(4.749355633683938899e-03 2.703253339124991840e-06 2.687590241422514910e-05)
(4.707721575749078402e-03 2.609049666354653422e-06 2.679319433335231325e-05)
(4.667863029461025159e-03 2.442920177653694468e-06 2.653297439409630593e-05)
(4.631132482722286232e-03 2.221496718388266760e-06 2.574185109696849877e-05)
(4.597970725611804851e-03 2.035287594721135386e-06 2.512419370493658040e-05)
(4.568465979141515983e-03 1.917691033547363546e-06 2.436182733973698856e-05)
(4.542168006752419010e-03 1.538980905383409763e-06 2.329114794374981858e-05)
(4.516515334564560544e-03 1.266532475359355241e-06 2.228575569205662070e-05)
(4.499635232350905970e-03 9.338398378489792641e-07 2.167922366722759890e-05)
(4.484451260677447919e-03 6.521231178776295473e-07 2.182736288734632484e-05)
(4.478993625515971175e-03 3.153021247460315737e-07 2.228794322669213051e-05)
(4.475377119960379305e-03 -7.152441140530177894e-08 2.240665262556724071e-05)
(4.482897141432339375e-03 -5.785905893065202734e-07 2.243133801105976050e-05)
(4.492832410794544637e-03 -9.845754040908053168e-07 2.265437745547477759e-05)
(4.509999327292716145e-03 -1.226593545771000751e-06 2.276156786074005331e-05)
(4.533457758400871035e-03 -1.627475167397606480e-06 2.301015880898934043e-05)
(4.565354948406513680e-03 -2.367533517170530309e-06 2.344324526009995807e-05)
(4.603816746662341489e-03 -2.664788927151976398e-06 2.364118590847330426e-05)
(4.648528461725270726e-03 -3.141067717911287151e-06 2.384304607154686499e-05)
(4.697826704457745174e-03 -3.428831188149818265e-06 2.420022660856574934e-05)
(4.757208472686961370e-03 -3.855633724086739481e-06 2.448612100225094603e-05)
(4.821053504896582499e-03 -4.401320981791002868e-06 2.452467350308116368e-05)
(4.895880233579844726e-03 -4.924749242496466498e-06 2.425483756614905446e-05)
(4.973347126227069086e-03 -5.133300233720974056e-06 2.383142754050967133e-05)
(5.055069736511121764e-03 -5.493143794488750098e-06 2.335594177732642839e-05)
(5.141257986299305888e-03 -5.615972125620967153e-06 2.309296185735080191e-05)
(5.229078965011351929e-03 -6.141432772758369833e-06 2.306381547502462035e-05)
(5.322213578762054892e-03 -6.314826047340763281e-06 2.311499180143553077e-05)
(5.416311339418207124e-03 -6.326700522832333446e-06 2.295550904122586465e-05)
(5.516196635357895756e-03 -6.574102480172175516e-06 2.276553535000578745e-05)
(5.615347788329595746e-03 -6.794084809156207429e-06 2.259229717126714370e-05)
(5.715289959894412353e-03 -6.860752110672821721e-06 2.251447355074945745e-05)
(5.818177312383933722e-03 -7.120419277229006356e-06 2.246114915008087023e-05)
(5.924371114659469743e-03 -7.044000811784357911e-06 2.237239151718862568e-05)
(6.024370041506065324e-03 -7.146519123699564631e-06 2.222119528039184907e-05)
(6.129811468866467120e-03 -7.187721837289936979e-06 2.200393657955188194e-05)
(6.232930175504606748e-03 -7.315718100575320145e-06 2.178818835353945626e-05)
(6.335610561479573105e-03 -7.462053950846866208e-06 2.161764885913605448e-05)
(6.440822096518720660e-03 -7.370223212046813918e-06 2.149400525109251722e-05)
(6.549187154783182516e-03 -7.461290577209382362e-06 2.148514502254693804e-05)
(6.653156524956535187e-03 -7.474453031526255377e-06 2.160930266984620643e-05)
(6.755660700670470566e-03 -7.444681107196484779e-06 2.188113888034158640e-05)
(6.854684815596548408e-03 -7.259603446587178409e-06 2.224825787157792660e-05)
(6.950769403646487633e-03 -7.157998034970013848e-06 2.264860405804821776e-05)
(7.045820542982236812e-03 -6.932527105021399943e-06 2.299807019997498583e-05)
(7.136042161883876522e-03 -6.697446145078932909e-06 2.327840808679624451e-05)
(7.220271331635246502e-03 -6.352187035011825867e-06 2.348213465692488582e-05)
(7.303276471488238247e-03 -5.921041839062917164e-06 2.363626043057345740e-05)
(7.378930342295779952e-03 -5.421108619907313419e-06 2.377519593983075510e-05)
(7.443302526615284097e-03 -4.844523954581159703e-06 2.393453324581622501e-05)
(7.510490310875131935e-03 -4.268685713145359797e-06 2.412805865853878074e-05)
(7.567061832286523480e-03 -3.449980117041620004e-06 2.427185466259487519e-05)
(1.049747514291728134e-02 -4.585341837568277789e-06 3.450498104144474325e-05)
(1.053652476673551733e-02 -3.103878728025464314e-06 3.470596715525287132e-05)
(1.056691643562229777e-02 -1.372865728910627968e-06 3.498724029663843145e-05)
(1.058875578980697507e-02 3.319563073823508444e-07 3.525778599733891538e-05)
(1.059748906269858404e-02 2.085017076795285216e-06 3.550437662387019051e-05)
(1.059260994972374692e-02 3.739802414023529979e-06 3.574550507518732567e-05)
(1.056710926326074988e-02 5.498263966495185932e-06 3.601887939692503728e-05)
(1.053678832486557894e-02 7.015074178743116515e-06 3.649401348974129955e-05)
(1.048170794030574282e-02 8.456529305959107425e-06 3.701476233176487489e-05)
(1.041411791725928120e-02 9.963070787126302320e-06 3.749095382536026298e-05)
(1.033586893916841123e-02 1.122385701337265304e-05 3.785385727646543088e-05)
(1.024151495678123254e-02 1.224818148229216819e-05 3.803561379358416650e-05)
(1.013910035983032684e-02 1.303047303311905209e-05 3.813269011235310741e-05)
(1.003202534209028662e-02 1.362872378732018063e-05 3.818371905508086898e-05)
(9.916310351469346043e-03 1.421089969889364785e-05 3.822406193820827045e-05)
(9.797293340089913150e-03 1.450761655691196071e-05 3.827393943525443898e-05)
(9.669843145868547291e-03 1.471585059996298673e-05 3.829504018301072585e-05)
(9.546021913195274627e-03 1.484884341716998964e-05 3.830138225753581025e-05)
(9.419946355335571953e-03 1.492448352734435369e-05 3.816333164847141512e-05)
(9.293787643103946366e-03 1.466289807878968273e-05 3.797638471117584957e-05)
(9.170650372942153530e-03 1.445858248689491078e-05 3.788545292010981057e-05)
(9.052841955453357764e-03 1.404826509375035868e-05 3.778848044876254584e-05)
(8.932823678234589476e-03 1.373124117292230346e-05 3.766881563466171806e-05)
(8.818898173584048539e-03 1.342312040328715335e-05 3.768219712302673286e-05)
(8.703469846351542805e-03 1.281672813407649324e-05 3.774166073180144204e-05)
(8.600052864914111209e-03 1.226193133934034857e-05 3.761903666060616445e-05)
(8.496298289355566635e-03 1.180663550443846640e-05 3.739942172140622184e-05)
(8.393605380659533571e-03 1.135195900224457827e-05 3.691312312993072763e-05)
(8.297334656152354632e-03 1.090687455879668272e-05 3.614265192340360079e-05)
(8.205555265309185872e-03 1.026791878900509983e-05 3.542709453119351968e-05)
(8.120662967051080552e-03 9.727549830024083855e-06 3.518045578265228019e-05)
(8.038976008086763658e-03 9.408988242952542286e-06 3.558769745881509779e-05)
(7.958942641750923336e-03 9.104520015927287734e-06 3.648793990265104158e-05)
(7.881426826765699709e-03 8.842220636525313442e-06 3.773872990656934579e-05)
(7.802249778410808717e-03 8.476924126709339859e-06 3.883802115742082992e-05)
(7.731089544150855468e-03 8.226457068890281223e-06 3.970223731273828810e-05)
(7.657817752320756829e-03 7.962302893633995050e-06 3.988764936275339434e-05)
(7.587393990013525588e-03 7.765499628051055275e-06 3.986312604184272864e-05)
(7.519509722990404266e-03 7.626572010246212855e-06 4.009365416503317490e-05)
(7.452918619539049619e-03 7.475174032021485681e-06 4.065087659242999001e-05)
(7.384817949464285089e-03 7.292753079187026169e-06 4.114653850698939586e-05)
(7.318517096996135160e-03 6.998319516234657395e-06 4.136149097894172656e-05)
(7.256292107582811707e-03 6.697879071762261742e-06 4.143596606470076891e-05)
(7.196739619386090768e-03 6.438558815127039550e-06 4.125279311544104974e-05)
(7.139739336573851236e-03 6.255633563089348179e-06 4.068637079249850147e-05)
(7.085325718410295619e-03 6.056919118855231041e-06 4.013553770639760392e-05)
(7.029610213409989705e-03 5.770523600448245721e-06 3.977759319130923276e-05)
(6.980791014176463034e-03 5.427369629737197084e-06 3.963134393824748467e-05)
(6.930059414583300548e-03 5.234666138717649328e-06 3.943658653429669698e-05)
(6.883121903821242532e-03 4.915920358538032964e-06 3.907830138299942945e-05)
(6.840449450738333992e-03 4.428319524565732999e-06 3.808857452326080555e-05)
(6.803159620975371413e-03 3.908133514414981907e-06 3.701896395173463354e-05)
(6.767033189518387518e-03 3.492226109132083722e-06 3.585914448162194851e-05)
(6.739549596742860915e-03 3.010501055427228099e-06 3.442926037055530806e-05)
(6.713909154467960667e-03 2.444885732647145454e-06 3.307056717155103752e-05)
(6.698798332009336422e-03 1.798806835479230653e-06 3.237611143980207795e-05)
(6.687907756317915293e-03 9.869109953065469383e-07 3.260139316493860259e-05)
(6.684717556836888841e-03 2.868441778427107542e-07 3.320668724510523226e-05)
(6.685469754849793222e-03 -6.021328815808144899e-07 3.345752392788815674e-05)
(6.699177202057308121e-03 -1.433830717424292649e-06 3.344181843885516098e-05)
(6.717535746185844189e-03 -2.224091792871705635e-06 3.364086108982672433e-05)
(6.746028636448040371e-03 -3.272582620956498689e-06 3.373360015787569112e-05)
(6.783009960736914069e-03 -4.167513236681530822e-06 3.407088383748146444e-05)
(6.830612779309319996e-03 -5.131128722434898577e-06 3.468351142643415414e-05)
(6.887631562517433637e-03 -5.858272894616904707e-06 3.485935465352066868e-05)
(6.949630388289764968e-03 -6.862769850838184279e-06 3.492871757298711573e-05)
(7.020086246337542413e-03 -7.786311028543262450e-06 3.530609935710101452e-05)
(7.100612798211554215e-03 -8.805727965435484984e-06 3.555916481772615430e-05)
(7.191822906071977488e-03 -9.669874480402365337e-06 3.555692029848607553e-05)
(7.287393937806470150e-03 -1.038810001867752680e-05 3.522341456590623288e-05)
(7.390126152032615997e-03 -1.109418696771660370e-05 3.468504311072910209e-05)
(7.501793141058205570e-03 -1.186794087789078925e-05 3.400109239923296083e-05)
(7.613562881447941480e-03 -1.225893876499661649e-05 3.359045169083871209e-05)
(7.728859857527775601e-03 -1.279248260212744216e-05 3.355596565289540760e-05)
(7.850201436334735064e-03 -1.316742682957286208e-05 3.360970485184850781e-05)
(7.968806423370470779e-03 -1.341784527141771694e-05 3.340592332726815476e-05)
(8.098002367051345893e-03 -1.387410087277241322e-05 3.313527383456042150e-05)
(8.224212267884497413e-03 -1.408590559293708023e-05 3.286554682979096634e-05)
(8.348128999600011937e-03 -1.427600008467365555e-05 3.268119022864933492e-05)