/*--------------------------------*- C++ -*----------------------------------*\
| =========                 |                                                 |
| \\      /  F ield         | OpenFOAM: The Open Source CFD Toolbox           |
|  \\    /   O peration     | Version:  2.3.x                                 |
|   \\  /    A nd           | Web:      www.OpenFOAM.org                      |
|    \\/     M anipulation  |                                                 |
\*---------------------------------------------------------------------------*/
FoamFile
{
    version     2.0;
    format      ascii;
    class       volScalarField;
    location    "10000";
    object      V;
}
// * * * * * * * * * * * * * * * * * * * * * * * * * * * * * * * * * * * * * //

dimensions      [0 3 0 0 0 0 0];

internalField   nonuniform List<scalar> 
14751
(
3.94788e-05
3.94754e-05
3.94731e-05
3.94735e-05
3.94766e-05
3.94787e-05
3.94801e-05
3.94812e-05
3.94824e-05
3.94835e-05
3.94843e-05
3.94835e-05
3.94805e-05
3.94779e-05
3.94759e-05
3.94744e-05
3.94736e-05
3.94727e-05
3.94718e-05
3.94713e-05
3.94712e-05
3.94711e-05
3.94709e-05
3.94708e-05
3.94707e-05
3.94706e-05
3.94705e-05
3.94704e-05
3.94703e-05
3.94702e-05
3.94701e-05
3.947e-05
3.94699e-05
3.94699e-05
3.94698e-05
3.94704e-05
3.94717e-05
3.94731e-05
3.94744e-05
3.94771e-05
3.94813e-05
3.94851e-05
3.94879e-05
3.94896e-05
3.949e-05
3.94905e-05
3.94909e-05
3.94913e-05
3.94918e-05
3.94922e-05
3.94926e-05
3.94926e-05
3.94922e-05
3.94917e-05
3.94913e-05
3.94909e-05
3.94905e-05
3.949e-05
3.94896e-05
3.94879e-05
3.94851e-05
3.94814e-05
3.94772e-05
3.94745e-05
3.94732e-05
3.94718e-05
3.94705e-05
3.94701e-05
3.94705e-05
3.94709e-05
3.94713e-05
3.94717e-05
3.94722e-05
3.94726e-05
3.94731e-05
3.94745e-05
3.94769e-05
3.94802e-05
3.94839e-05
3.94863e-05
3.94875e-05
3.94886e-05
3.94898e-05
3.949e-05
3.94892e-05
3.94884e-05
3.94875e-05
3.94861e-05
3.94842e-05
3.94816e-05
3.94787e-05
3.94775e-05
3.94777e-05
3.94779e-05
3.9478e-05
3.94784e-05
3.94789e-05
3.94796e-05
3.94806e-05
4.12621e-05
4.12971e-05
4.13678e-05
4.14827e-05
4.16368e-05
4.18116e-05
4.19995e-05
4.21986e-05
4.24029e-05
4.26096e-05
4.28172e-05
4.30232e-05
4.32265e-05
4.34272e-05
4.36242e-05
4.3817e-05
4.40045e-05
4.4186e-05
4.43612e-05
4.453e-05
4.4692e-05
4.48469e-05
4.49939e-05
4.5133e-05
4.52646e-05
4.53884e-05
4.55046e-05
4.56132e-05
4.57145e-05
4.58087e-05
4.58959e-05
4.59765e-05
4.60506e-05
4.61187e-05
4.61808e-05
4.62378e-05
4.62899e-05
4.6337e-05
4.63794e-05
4.64178e-05
4.64525e-05
4.64829e-05
4.65094e-05
4.65316e-05
4.65497e-05
4.65644e-05
4.65758e-05
4.65841e-05
4.65892e-05
4.65912e-05
4.659e-05
4.65856e-05
4.65777e-05
4.65666e-05
4.65522e-05
4.65345e-05
4.65132e-05
4.64883e-05
4.64596e-05
4.64263e-05
4.63882e-05
4.63454e-05
4.62978e-05
4.62457e-05
4.61888e-05
4.61265e-05
4.60583e-05
4.59846e-05
4.59049e-05
4.58185e-05
4.57252e-05
4.56247e-05
4.55168e-05
4.54013e-05
4.52784e-05
4.51486e-05
4.50112e-05
4.48662e-05
4.47133e-05
4.45526e-05
4.43843e-05
4.42088e-05
4.4027e-05
4.38385e-05
4.36448e-05
4.34468e-05
4.32453e-05
4.30412e-05
4.28352e-05
4.26287e-05
4.24224e-05
4.22179e-05
4.20198e-05
4.183e-05
4.16546e-05
4.14991e-05
4.13707e-05
4.12834e-05
4.12517e-05
4.31101e-05
4.31722e-05
4.33029e-05
4.35078e-05
4.37782e-05
4.40875e-05
4.44212e-05
4.47757e-05
4.51399e-05
4.55092e-05
4.58816e-05
4.62534e-05
4.66226e-05
4.69883e-05
4.73484e-05
4.77013e-05
4.80452e-05
4.83788e-05
4.87019e-05
4.90139e-05
4.93139e-05
4.96014e-05
4.98753e-05
5.01352e-05
5.03816e-05
5.0614e-05
5.08324e-05
5.10369e-05
5.1228e-05
5.1406e-05
5.1571e-05
5.17237e-05
5.18643e-05
5.19935e-05
5.21116e-05
5.22196e-05
5.23179e-05
5.24068e-05
5.24867e-05
5.25585e-05
5.26223e-05
5.26784e-05
5.27272e-05
5.27686e-05
5.28029e-05
5.28307e-05
5.28523e-05
5.28678e-05
5.28772e-05
5.28808e-05
5.28784e-05
5.28698e-05
5.2855e-05
5.28341e-05
5.28069e-05
5.27733e-05
5.2733e-05
5.26858e-05
5.26312e-05
5.25686e-05
5.24976e-05
5.24181e-05
5.23297e-05
5.22321e-05
5.21248e-05
5.20072e-05
5.18786e-05
5.1739e-05
5.15878e-05
5.14242e-05
5.12476e-05
5.10577e-05
5.08543e-05
5.0637e-05
5.04061e-05
5.01622e-05
4.99043e-05
4.96325e-05
4.93468e-05
4.9048e-05
4.87365e-05
4.84128e-05
4.80781e-05
4.77328e-05
4.73791e-05
4.70187e-05
4.66529e-05
4.62838e-05
4.59128e-05
4.55424e-05
4.51737e-05
4.48086e-05
4.44547e-05
4.41163e-05
4.38044e-05
4.35282e-05
4.33013e-05
4.31479e-05
4.30932e-05
4.50302e-05
4.51102e-05
4.52835e-05
4.55576e-05
4.59217e-05
4.63392e-05
4.67894e-05
4.72676e-05
4.77588e-05
4.82573e-05
4.87611e-05
4.92663e-05
4.977e-05
5.02699e-05
5.07628e-05
5.12465e-05
5.17182e-05
5.21763e-05
5.26208e-05
5.30507e-05
5.34649e-05
5.38626e-05
5.42423e-05
5.46034e-05
5.49465e-05
5.52705e-05
5.55754e-05
5.58613e-05
5.61287e-05
5.63779e-05
5.66094e-05
5.68236e-05
5.70211e-05
5.72027e-05
5.73689e-05
5.75205e-05
5.76584e-05
5.77829e-05
5.7895e-05
5.79948e-05
5.8083e-05
5.81607e-05
5.82282e-05
5.82859e-05
5.83341e-05
5.83732e-05
5.84034e-05
5.84251e-05
5.84383e-05
5.84431e-05
5.84395e-05
5.84274e-05
5.84067e-05
5.83773e-05
5.83391e-05
5.82918e-05
5.82352e-05
5.81687e-05
5.8092e-05
5.80045e-05
5.79056e-05
5.77952e-05
5.76724e-05
5.75361e-05
5.73858e-05
5.7221e-05
5.70409e-05
5.68451e-05
5.66327e-05
5.64031e-05
5.61556e-05
5.58897e-05
5.56052e-05
5.53017e-05
5.49796e-05
5.46393e-05
5.42798e-05
5.39017e-05
5.3505e-05
5.30914e-05
5.26618e-05
5.22162e-05
5.17565e-05
5.12832e-05
5.07995e-05
5.03072e-05
4.98083e-05
4.93064e-05
4.88035e-05
4.83028e-05
4.78057e-05
4.73136e-05
4.68365e-05
4.63803e-05
4.596e-05
4.55884e-05
4.52849e-05
4.50809e-05
4.5009e-05
4.70223e-05
4.71151e-05
4.73261e-05
4.76575e-05
4.80972e-05
4.86026e-05
4.91476e-05
4.97258e-05
5.0319e-05
5.09212e-05
5.15309e-05
5.21434e-05
5.27552e-05
5.33637e-05
5.39643e-05
5.4554e-05
5.51295e-05
5.56888e-05
5.6232e-05
5.6758e-05
5.72656e-05
5.77539e-05
5.82208e-05
5.8666e-05
5.90894e-05
5.94897e-05
5.98666e-05
6.02204e-05
6.05517e-05
6.08606e-05
6.11476e-05
6.14134e-05
6.16587e-05
6.18843e-05
6.20909e-05
6.22795e-05
6.2451e-05
6.2606e-05
6.27455e-05
6.287e-05
6.29802e-05
6.30772e-05
6.31615e-05
6.32335e-05
6.32935e-05
6.33422e-05
6.338e-05
6.3407e-05
6.34234e-05
6.34294e-05
6.3425e-05
6.34099e-05
6.33841e-05
6.33474e-05
6.32998e-05
6.32409e-05
6.31702e-05
6.30874e-05
6.29918e-05
6.28827e-05
6.27595e-05
6.26217e-05
6.24686e-05
6.2299e-05
6.2112e-05
6.19071e-05
6.16834e-05
6.14402e-05
6.11767e-05
6.08919e-05
6.05851e-05
6.02558e-05
5.99036e-05
5.95283e-05
5.91303e-05
5.87103e-05
5.82672e-05
5.78023e-05
5.73155e-05
5.68086e-05
5.62827e-05
5.57382e-05
5.51768e-05
5.45993e-05
5.40092e-05
5.3409e-05
5.28014e-05
5.21911e-05
5.15806e-05
5.09739e-05
5.03727e-05
4.9778e-05
4.92011e-05
4.86494e-05
4.81409e-05
4.76917e-05
4.73272e-05
4.70839e-05
4.7e-05
4.9088e-05
4.91866e-05
4.94285e-05
4.98086e-05
5.03135e-05
5.08945e-05
5.15197e-05
5.21815e-05
5.2859e-05
5.35463e-05
5.42431e-05
5.49443e-05
5.5646e-05
5.63448e-05
5.7035e-05
5.77125e-05
5.83738e-05
5.90162e-05
5.96405e-05
6.02457e-05
6.08303e-05
6.13934e-05
6.19328e-05
6.24479e-05
6.29386e-05
6.34027e-05
6.38401e-05
6.42508e-05
6.46355e-05
6.49945e-05
6.53283e-05
6.56375e-05
6.5923e-05
6.61856e-05
6.64262e-05
6.66457e-05
6.68453e-05
6.70258e-05
6.71882e-05
6.73331e-05
6.74612e-05
6.7574e-05
6.76719e-05
6.77556e-05
6.78256e-05
6.78824e-05
6.79263e-05
6.79578e-05
6.79769e-05
6.79838e-05
6.79785e-05
6.79609e-05
6.79309e-05
6.78882e-05
6.78327e-05
6.7764e-05
6.76817e-05
6.75851e-05
6.74737e-05
6.73468e-05
6.72036e-05
6.70433e-05
6.68652e-05
6.66678e-05
6.64502e-05
6.62118e-05
6.59516e-05
6.56686e-05
6.5362e-05
6.50308e-05
6.46742e-05
6.42916e-05
6.38827e-05
6.34472e-05
6.29857e-05
6.24986e-05
6.19854e-05
6.1448e-05
6.08861e-05
6.03022e-05
5.96969e-05
5.9071e-05
5.84261e-05
5.77627e-05
5.70851e-05
5.63957e-05
5.56981e-05
5.49983e-05
5.42992e-05
5.36056e-05
5.29191e-05
5.224e-05
5.15803e-05
5.09486e-05
5.03659e-05
4.98513e-05
4.94364e-05
4.91613e-05
4.90688e-05
5.12296e-05
5.13285e-05
5.15984e-05
5.20217e-05
5.25847e-05
5.32327e-05
5.39282e-05
5.46622e-05
5.54118e-05
5.61711e-05
5.69415e-05
5.77178e-05
5.84958e-05
5.92713e-05
6.00372e-05
6.07887e-05
6.1522e-05
6.2234e-05
6.29259e-05
6.35972e-05
6.42462e-05
6.48721e-05
6.54726e-05
6.6047e-05
6.65949e-05
6.71134e-05
6.76021e-05
6.80613e-05
6.84916e-05
6.88933e-05
6.92668e-05
6.9613e-05
6.99327e-05
7.02268e-05
7.04964e-05
7.07424e-05
7.09661e-05
7.11684e-05
7.13505e-05
7.1513e-05
7.16568e-05
7.17833e-05
7.18931e-05
7.1987e-05
7.20656e-05
7.21293e-05
7.21786e-05
7.22139e-05
7.22353e-05
7.22431e-05
7.22372e-05
7.22174e-05
7.21837e-05
7.21358e-05
7.20736e-05
7.19965e-05
7.19041e-05
7.17958e-05
7.16708e-05
7.15284e-05
7.13679e-05
7.11881e-05
7.09884e-05
7.07671e-05
7.05233e-05
7.02562e-05
6.99647e-05
6.96479e-05
6.93046e-05
6.89338e-05
6.85348e-05
6.8107e-05
6.76498e-05
6.71631e-05
6.66475e-05
6.61036e-05
6.55311e-05
6.49327e-05
6.43081e-05
6.36597e-05
6.29881e-05
6.22943e-05
6.15797e-05
6.08442e-05
6.00924e-05
5.93273e-05
5.85529e-05
5.77769e-05
5.70026e-05
5.62351e-05
5.54763e-05
5.47255e-05
5.39949e-05
5.32939e-05
5.26465e-05
5.20748e-05
5.16171e-05
5.13159e-05
5.12174e-05
5.345e-05
5.35466e-05
5.38452e-05
5.43092e-05
5.49243e-05
5.5633e-05
5.63915e-05
5.71896e-05
5.8002e-05
5.88236e-05
5.9658e-05
6.04997e-05
6.13443e-05
6.21869e-05
6.30191e-05
6.38348e-05
6.46302e-05
6.54019e-05
6.61517e-05
6.68794e-05
6.75837e-05
6.82636e-05
6.89168e-05
6.95428e-05
7.01406e-05
7.07063e-05
7.12399e-05
7.17414e-05
7.22114e-05
7.26502e-05
7.30584e-05
7.34368e-05
7.37864e-05
7.41081e-05
7.44029e-05
7.4672e-05
7.49167e-05
7.5138e-05
7.53372e-05
7.5515e-05
7.56724e-05
7.58108e-05
7.59309e-05
7.60336e-05
7.61196e-05
7.61893e-05
7.62433e-05
7.62819e-05
7.63054e-05
7.63138e-05
7.63073e-05
7.62856e-05
7.62488e-05
7.61964e-05
7.61283e-05
7.60439e-05
7.59428e-05
7.58243e-05
7.56874e-05
7.55317e-05
7.53561e-05
7.51595e-05
7.49408e-05
7.46988e-05
7.44321e-05
7.41401e-05
7.38214e-05
7.3475e-05
7.30997e-05
7.26945e-05
7.22585e-05
7.17911e-05
7.12919e-05
7.07605e-05
7.01978e-05
6.96042e-05
6.898e-05
6.83288e-05
6.76502e-05
6.69465e-05
6.62182e-05
6.54664e-05
6.46919e-05
6.38943e-05
6.30784e-05
6.22472e-05
6.14055e-05
6.05628e-05
5.97228e-05
5.8891e-05
5.80693e-05
5.72556e-05
5.64621e-05
5.56991e-05
5.4993e-05
5.43695e-05
5.38738e-05
5.35502e-05
5.34478e-05
5.57518e-05
5.58409e-05
5.61634e-05
5.66653e-05
5.73317e-05
5.80991e-05
5.89173e-05
5.9775e-05
6.06452e-05
6.15233e-05
6.24156e-05
6.33165e-05
6.42213e-05
6.51247e-05
6.60164e-05
6.68895e-05
6.77401e-05
6.85643e-05
6.93649e-05
7.01424e-05
7.08953e-05
7.16228e-05
7.23228e-05
7.29949e-05
7.36374e-05
7.42456e-05
7.48194e-05
7.53587e-05
7.58643e-05
7.63364e-05
7.67758e-05
7.71831e-05
7.75593e-05
7.79056e-05
7.82231e-05
7.8513e-05
7.87765e-05
7.9015e-05
7.92296e-05
7.94212e-05
7.9591e-05
7.97401e-05
7.98696e-05
7.99803e-05
8.00731e-05
8.01482e-05
8.02064e-05
8.0248e-05
8.02733e-05
8.02824e-05
8.02753e-05
8.0252e-05
8.02123e-05
8.01558e-05
8.00824e-05
7.99915e-05
7.98825e-05
7.97548e-05
7.96073e-05
7.94395e-05
7.92502e-05
7.90383e-05
7.88027e-05
7.85419e-05
7.82547e-05
7.79402e-05
7.7597e-05
7.72241e-05
7.68201e-05
7.63841e-05
7.5915e-05
7.54123e-05
7.48753e-05
7.4304e-05
7.3699e-05
7.30609e-05
7.23906e-05
7.16927e-05
7.09664e-05
7.02141e-05
6.94358e-05
6.86332e-05
6.7806e-05
6.69533e-05
6.60799e-05
6.51891e-05
6.42866e-05
6.33834e-05
6.24839e-05
6.15941e-05
6.07157e-05
5.98452e-05
5.89939e-05
5.81733e-05
5.74123e-05
5.67402e-05
5.62099e-05
5.58667e-05
5.57621e-05
5.81387e-05
5.82222e-05
5.85742e-05
5.91143e-05
5.98273e-05
6.06495e-05
6.15239e-05
6.24369e-05
6.33599e-05
6.42894e-05
6.52346e-05
6.61897e-05
6.71503e-05
6.81098e-05
6.90564e-05
6.99821e-05
7.08831e-05
7.17549e-05
7.26013e-05
7.34235e-05
7.42204e-05
7.49911e-05
7.57338e-05
7.64483e-05
7.7132e-05
7.77794e-05
7.83902e-05
7.89645e-05
7.95029e-05
8.00058e-05
8.04737e-05
8.09076e-05
8.13086e-05
8.16776e-05
8.2016e-05
8.23249e-05
8.26059e-05
8.28601e-05
8.30889e-05
8.32933e-05
8.34746e-05
8.36339e-05
8.37721e-05
8.38903e-05
8.39892e-05
8.40693e-05
8.41314e-05
8.41758e-05
8.42027e-05
8.42124e-05
8.42049e-05
8.418e-05
8.41377e-05
8.40775e-05
8.39992e-05
8.39022e-05
8.3786e-05
8.36498e-05
8.34925e-05
8.33134e-05
8.31115e-05
8.28853e-05
8.2634e-05
8.23558e-05
8.20497e-05
8.17145e-05
8.13488e-05
8.09514e-05
8.0521e-05
8.00565e-05
7.95569e-05
7.90215e-05
7.84498e-05
7.78416e-05
7.71977e-05
7.65184e-05
7.58059e-05
7.50654e-05
7.42959e-05
7.34996e-05
7.26763e-05
7.18277e-05
7.09529e-05
7.005e-05
6.91238e-05
6.81778e-05
6.72186e-05
6.62591e-05
6.53043e-05
6.43605e-05
6.34295e-05
6.2506e-05
6.16001e-05
6.07245e-05
5.99104e-05
5.91912e-05
5.86284e-05
5.82673e-05
5.81619e-05
6.06145e-05
6.0689e-05
6.10627e-05
6.16381e-05
6.23996e-05
6.32776e-05
6.4208e-05
6.51756e-05
6.61501e-05
6.71291e-05
6.81251e-05
6.91324e-05
7.01465e-05
7.116e-05
7.21592e-05
7.31347e-05
7.40829e-05
7.4999e-05
7.58879e-05
7.67517e-05
7.75894e-05
7.84004e-05
7.91831e-05
7.99376e-05
8.06604e-05
8.13448e-05
8.19908e-05
8.25981e-05
8.31676e-05
8.36995e-05
8.41946e-05
8.46537e-05
8.50779e-05
8.54685e-05
8.58266e-05
8.61536e-05
8.6451e-05
8.67201e-05
8.69623e-05
8.71788e-05
8.73707e-05
8.75394e-05
8.76857e-05
8.78109e-05
8.79156e-05
8.80005e-05
8.80662e-05
8.81132e-05
8.81417e-05
8.8152e-05
8.8144e-05
8.81177e-05
8.80728e-05
8.80091e-05
8.79262e-05
8.78235e-05
8.77005e-05
8.75562e-05
8.73897e-05
8.72001e-05
8.69863e-05
8.67469e-05
8.64807e-05
8.61863e-05
8.58623e-05
8.55075e-05
8.51205e-05
8.47e-05
8.42446e-05
8.37532e-05
8.32246e-05
8.26584e-05
8.20538e-05
8.14107e-05
8.07299e-05
8.00116e-05
7.9259e-05
7.84784e-05
7.76684e-05
7.68312e-05
7.59661e-05
7.5075e-05
7.41559e-05
7.32059e-05
7.22299e-05
7.12314e-05
7.0218e-05
6.92047e-05
6.81972e-05
6.72022e-05
6.62214e-05
6.52471e-05
6.42883e-05
6.33587e-05
6.24921e-05
6.17264e-05
6.11321e-05
6.07545e-05
6.06492e-05
6.31816e-05
6.32521e-05
6.3655e-05
6.42674e-05
6.50727e-05
6.60036e-05
6.69879e-05
6.80076e-05
6.9031e-05
7.00567e-05
7.1101e-05
7.21585e-05
7.32242e-05
7.429e-05
7.53399e-05
7.63634e-05
7.73569e-05
7.8315e-05
7.9244e-05
8.01471e-05
8.10236e-05
8.18729e-05
8.26939e-05
8.3487e-05
8.42476e-05
8.49679e-05
8.56478e-05
8.62872e-05
8.68867e-05
8.74468e-05
8.79681e-05
8.84515e-05
8.88983e-05
8.93096e-05
8.96869e-05
9.00313e-05
9.03446e-05
9.0628e-05
9.08832e-05
9.11113e-05
9.13135e-05
9.14913e-05
9.16456e-05
9.17775e-05
9.18879e-05
9.19773e-05
9.20466e-05
9.2096e-05
9.21261e-05
9.21369e-05
9.21284e-05
9.21007e-05
9.20534e-05
9.19863e-05
9.1899e-05
9.17908e-05
9.16612e-05
9.15091e-05
9.13337e-05
9.11339e-05
9.09086e-05
9.06563e-05
9.03758e-05
9.00657e-05
8.97244e-05
8.93507e-05
8.89431e-05
8.85003e-05
8.80206e-05
8.75032e-05
8.69467e-05
8.63505e-05
8.57141e-05
8.50372e-05
8.43206e-05
8.35646e-05
8.27733e-05
8.19543e-05
8.11058e-05
8.02298e-05
7.93251e-05
7.83937e-05
7.74325e-05
7.64376e-05
7.54135e-05
7.4364e-05
7.32977e-05
7.22321e-05
7.11731e-05
7.01283e-05
6.9099e-05
6.80752e-05
6.7064e-05
6.60805e-05
6.51609e-05
6.43483e-05
6.37229e-05
6.33296e-05
6.32258e-05
6.5845e-05
6.59107e-05
6.63322e-05
6.69777e-05
6.78295e-05
6.88156e-05
6.98551e-05
7.0928e-05
7.2001e-05
7.30737e-05
7.41664e-05
7.52739e-05
7.63912e-05
7.75092e-05
7.86096e-05
7.96802e-05
8.07178e-05
8.17167e-05
8.26844e-05
8.36254e-05
8.45392e-05
8.54257e-05
8.62842e-05
8.71151e-05
8.7913e-05
8.86687e-05
8.93821e-05
9.0053e-05
9.06821e-05
9.12699e-05
9.1817e-05
9.23244e-05
9.27934e-05
9.32252e-05
9.36213e-05
9.39829e-05
9.43118e-05
9.46095e-05
9.48774e-05
9.51169e-05
9.53294e-05
9.55161e-05
9.56781e-05
9.58167e-05
9.59326e-05
9.60265e-05
9.60992e-05
9.61512e-05
9.61827e-05
9.6194e-05
9.61852e-05
9.6156e-05
9.61064e-05
9.60359e-05
9.59442e-05
9.58306e-05
9.56945e-05
9.55348e-05
9.53506e-05
9.51408e-05
9.49041e-05
9.46392e-05
9.43447e-05
9.40191e-05
9.36607e-05
9.32684e-05
9.28405e-05
9.23756e-05
9.18722e-05
9.1329e-05
9.0745e-05
9.01194e-05
8.94516e-05
8.87415e-05
8.79897e-05
8.71964e-05
8.6367e-05
8.55105e-05
8.46245e-05
8.3711e-05
8.27681e-05
8.1798e-05
8.07963e-05
7.97576e-05
7.86863e-05
7.75863e-05
7.64675e-05
7.53498e-05
7.424e-05
7.31458e-05
7.20688e-05
7.09958e-05
6.9932e-05
6.88938e-05
6.79201e-05
6.70595e-05
6.6403e-05
6.59945e-05
6.58931e-05
6.86053e-05
6.86724e-05
6.91182e-05
6.9798e-05
7.06928e-05
7.17321e-05
7.2826e-05
7.39511e-05
7.50725e-05
7.61909e-05
7.73311e-05
7.84881e-05
7.96567e-05
8.08268e-05
8.19773e-05
8.30947e-05
8.41759e-05
8.52146e-05
8.622e-05
8.7198e-05
8.81484e-05
8.90714e-05
8.99668e-05
9.08354e-05
9.16705e-05
9.24616e-05
9.32084e-05
9.39107e-05
9.45694e-05
9.51848e-05
9.57578e-05
9.62891e-05
9.67803e-05
9.72325e-05
9.76473e-05
9.80261e-05
9.83706e-05
9.86824e-05
9.89631e-05
9.9214e-05
9.94366e-05
9.96323e-05
9.98021e-05
9.99473e-05
0.000100069
0.000100167
0.000100243
0.000100298
0.000100331
0.000100343
0.000100333
0.000100303
0.000100251
0.000100177
0.000100081
9.99619e-05
9.98193e-05
9.9652e-05
9.9459e-05
9.92392e-05
9.89912e-05
9.87136e-05
9.84051e-05
9.80639e-05
9.76886e-05
9.72777e-05
9.68296e-05
9.63427e-05
9.58154e-05
9.52467e-05
9.46352e-05
9.39802e-05
9.32811e-05
9.25378e-05
9.17507e-05
9.09202e-05
9.0053e-05
8.91593e-05
8.82366e-05
8.72863e-05
8.63061e-05
8.52983e-05
8.42568e-05
8.31749e-05
8.20567e-05
8.09063e-05
7.97346e-05
7.85646e-05
7.74038e-05
7.62603e-05
7.51356e-05
7.40131e-05
7.28957e-05
7.18015e-05
7.07718e-05
6.98617e-05
6.91737e-05
6.87506e-05
6.86526e-05
7.14654e-05
7.1534e-05
7.19939e-05
7.27045e-05
7.36455e-05
7.47412e-05
7.58918e-05
7.70711e-05
7.82425e-05
7.94076e-05
8.05962e-05
8.18037e-05
8.30245e-05
8.42477e-05
8.54491e-05
8.66137e-05
8.77382e-05
8.88164e-05
8.98591e-05
9.08736e-05
9.18603e-05
9.28195e-05
9.37519e-05
9.46583e-05
9.5531e-05
9.63577e-05
9.71382e-05
9.78723e-05
9.85608e-05
9.92041e-05
9.9803e-05
0.000100359
0.000100872
0.000101345
0.000101779
0.000102175
0.000102535
0.000102861
0.000103155
0.000103417
0.00010365
0.000103854
0.000104032
0.000104184
0.000104311
0.000104414
0.000104494
0.00010455
0.000104585
0.000104597
0.000104588
0.000104556
0.000104501
0.000104424
0.000104324
0.000104199
0.00010405
0.000103875
0.000103673
0.000103443
0.000103184
0.000102894
0.000102571
0.000102214
0.000101822
0.000101392
0.000100924
0.000100415
9.98633e-05
9.92687e-05
9.86295e-05
9.79449e-05
9.72142e-05
9.64374e-05
9.56148e-05
9.47467e-05
9.38414e-05
9.29106e-05
9.19513e-05
9.09646e-05
8.99475e-05
8.89024e-05
8.78217e-05
8.66968e-05
8.55315e-05
8.43301e-05
8.31049e-05
8.18818e-05
8.06694e-05
7.94761e-05
7.83033e-05
7.71306e-05
7.59584e-05
7.48063e-05
7.37184e-05
7.2757e-05
7.20367e-05
7.15992e-05
7.15058e-05
7.44244e-05
7.44983e-05
7.49742e-05
7.57162e-05
7.67026e-05
7.78553e-05
7.90636e-05
8.02977e-05
8.15192e-05
8.2731e-05
8.39683e-05
8.52267e-05
8.65005e-05
8.77775e-05
8.90306e-05
9.02427e-05
9.14108e-05
9.25283e-05
9.36079e-05
9.46587e-05
9.56814e-05
9.66769e-05
9.76463e-05
9.85911e-05
9.95019e-05
0.000100365
0.00010118
0.000101946
0.000102665
0.000103336
0.000103962
0.000104542
0.000105078
0.000105572
0.000106024
0.000106438
0.000106814
0.000107155
0.000107461
0.000107735
0.000107979
0.000108193
0.000108378
0.000108537
0.000108669
0.000108777
0.00010886
0.000108919
0.000108956
0.000108968
0.000108958
0.000108925
0.000108868
0.000108787
0.000108683
0.000108553
0.000108397
0.000108214
0.000108003
0.000107763
0.000107492
0.000107189
0.000106852
0.000106479
0.00010607
0.000105621
0.000105132
0.0001046
0.000104024
0.000103404
0.000102736
0.000102022
0.000101259
0.000100448
9.95893e-05
9.86831e-05
9.77392e-05
9.6771e-05
9.57751e-05
9.47521e-05
9.36985e-05
9.26164e-05
9.14966e-05
9.03286e-05
8.91157e-05
8.78625e-05
8.65827e-05
8.53055e-05
8.40405e-05
8.27966e-05
8.15751e-05
8.03511e-05
7.91222e-05
7.791e-05
7.67613e-05
7.57463e-05
7.4993e-05
7.45413e-05
7.44536e-05
7.74832e-05
7.75623e-05
7.80475e-05
7.88191e-05
7.98539e-05
8.10667e-05
8.23353e-05
8.36266e-05
8.49003e-05
8.61601e-05
8.74476e-05
8.87584e-05
9.00867e-05
9.14192e-05
9.27252e-05
9.39858e-05
9.51979e-05
9.63547e-05
9.74712e-05
9.85582e-05
9.96169e-05
0.000100649
0.000101656
0.00010264
0.000103589
0.000104489
0.000105339
0.000106138
0.000106888
0.000107588
0.000108241
0.000108846
0.000109405
0.00010992
0.000110392
0.000110824
0.000111217
0.000111572
0.000111892
0.000112178
0.000112431
0.000112655
0.000112848
0.000113014
0.000113152
0.000113264
0.000113351
0.000113413
0.000113451
0.000113464
0.000113453
0.000113419
0.000113359
0.000113275
0.000113166
0.00011303
0.000112868
0.000112677
0.000112457
0.000112207
0.000111924
0.000111608
0.000111256
0.000110867
0.00011044
0.000109971
0.000109461
0.000108906
0.000108306
0.000107658
0.000106962
0.000106217
0.000105422
0.000104576
0.00010368
0.000102735
0.000101752
0.000100746
9.97133e-05
9.8654e-05
9.75639e-05
9.6445e-05
9.52862e-05
9.40747e-05
9.28134e-05
9.15073e-05
9.01714e-05
8.88389e-05
8.75201e-05
8.62246e-05
8.49535e-05
8.36769e-05
8.23895e-05
8.11146e-05
7.99021e-05
7.8831e-05
7.80436e-05
7.7578e-05
7.74972e-05
8.06396e-05
8.07229e-05
8.12158e-05
8.20171e-05
8.31034e-05
8.43796e-05
8.57114e-05
8.70623e-05
8.83898e-05
8.9699e-05
9.10378e-05
9.24023e-05
9.37865e-05
9.5176e-05
9.65363e-05
9.78461e-05
9.91027e-05
0.000100299
0.000101452
0.000102575
0.00010367
0.000104739
0.000105784
0.000106808
0.000107797
0.000108735
0.00010962
0.000110453
0.000111234
0.000111964
0.000112644
0.000113275
0.000113858
0.000114395
0.000114887
0.000115337
0.000115746
0.000116117
0.00011645
0.000116749
0.000117013
0.000117246
0.000117448
0.00011762
0.000117765
0.000117882
0.000117972
0.000118037
0.000118076
0.00011809
0.000118079
0.000118042
0.000117981
0.000117893
0.000117779
0.000117638
0.000117468
0.000117269
0.00011704
0.000116779
0.000116484
0.000116154
0.000115788
0.000115382
0.000114937
0.000114449
0.000113916
0.000113338
0.000112712
0.000112038
0.000111312
0.000110535
0.000109706
0.000108825
0.000107892
0.000106907
0.000105884
0.000104839
0.000103769
0.000102674
0.000101547
0.000100391
9.91935e-05
9.79381e-05
9.66277e-05
9.52673e-05
9.38738e-05
9.24843e-05
9.11105e-05
8.97621e-05
8.84403e-05
8.71097e-05
8.57613e-05
8.4421e-05
8.31414e-05
8.20116e-05
8.1189e-05
8.07097e-05
8.06372e-05
8.38919e-05
8.39773e-05
8.44775e-05
8.53096e-05
8.64504e-05
8.77937e-05
8.91918e-05
9.06049e-05
9.19882e-05
9.33482e-05
9.47397e-05
9.61597e-05
9.76015e-05
9.90499e-05
0.000100466
0.000101826
0.000103128
0.000104364
0.000105554
0.000106714
0.000107845
0.000108951
0.000110034
0.000111098
0.000112129
0.000113105
0.000114027
0.000114895
0.000115709
0.000116469
0.000117177
0.000117834
0.000118441
0.000119
0.000119513
0.000119982
0.000120408
0.000120794
0.000121142
0.000121452
0.000121728
0.00012197
0.000122181
0.00012236
0.000122511
0.000122633
0.000122727
0.000122794
0.000122835
0.00012285
0.000122838
0.0001228
0.000122736
0.000122645
0.000122526
0.000122379
0.000122202
0.000121995
0.000121756
0.000121484
0.000121177
0.000120833
0.000120451
0.000120029
0.000119565
0.000119056
0.000118502
0.0001179
0.000117248
0.000116545
0.000115789
0.00011498
0.000114117
0.000113199
0.000112228
0.000111202
0.000110137
0.000109054
0.000107946
0.000106814
0.000105651
0.000104458
0.000103221
0.000101921
0.000100561
9.91447e-05
9.76918e-05
9.62438e-05
9.48134e-05
9.34109e-05
9.20373e-05
9.06509e-05
8.92392e-05
8.78303e-05
8.64802e-05
8.52887e-05
8.44298e-05
8.39371e-05
8.3874e-05
8.72383e-05
8.73199e-05
8.78239e-05
8.86878e-05
8.98894e-05
9.13056e-05
9.2775e-05
9.42542e-05
9.5696e-05
9.71086e-05
9.85548e-05
0.000100032
0.000101533
0.000103042
0.000104516
0.000105928
0.000107275
0.000108551
0.000109778
0.000110974
0.000112142
0.000113285
0.000114408
0.000115514
0.000116586
0.000117602
0.000118562
0.000119465
0.000120312
0.000121103
0.00012184
0.000122524
0.000123156
0.000123738
0.000124273
0.000124761
0.000125204
0.000125606
0.000125968
0.000126292
0.000126579
0.000126831
0.00012705
0.000127237
0.000127394
0.00012752
0.000127619
0.000127689
0.000127731
0.000127746
0.000127734
0.000127695
0.000127628
0.000127533
0.000127409
0.000127256
0.000127072
0.000126856
0.000126608
0.000126324
0.000126005
0.000125647
0.000125249
0.00012481
0.000124326
0.000123797
0.00012322
0.000122593
0.000121914
0.000121182
0.000120396
0.000119554
0.000118655
0.0001177
0.000116689
0.000115621
0.000114514
0.000113391
0.000112246
0.000111077
0.000109877
0.000108647
0.000107371
0.000106026
0.000104614
0.000103141
0.000101627
0.000100119
9.86301e-05
9.7172e-05
9.57453e-05
9.43013e-05
9.28237e-05
9.1343e-05
8.99186e-05
8.86624e-05
8.77658e-05
8.726e-05
8.72081e-05
9.06765e-05
9.07504e-05
9.1263e-05
9.21622e-05
9.34277e-05
9.49206e-05
9.64648e-05
9.80128e-05
9.95151e-05
0.000100982
0.000102484
0.00010402
0.000105583
0.000107155
0.000108687
0.000110152
0.000111545
0.000112862
0.000114125
0.000115358
0.000116563
0.000117744
0.000118907
0.000120055
0.00012117
0.000122227
0.000123226
0.000124165
0.000125046
0.00012587
0.000126636
0.000127348
0.000128006
0.000128611
0.000129167
0.000129675
0.000130137
0.000130555
0.000130931
0.000131268
0.000131566
0.000131829
0.000132057
0.000132251
0.000132414
0.000132546
0.000132648
0.000132721
0.000132766
0.000132781
0.000132769
0.000132728
0.000132658
0.000132559
0.000132431
0.000132271
0.00013208
0.000131856
0.000131597
0.000131302
0.000130969
0.000130597
0.000130183
0.000129726
0.000129223
0.000128672
0.000128072
0.000127419
0.000126713
0.000125952
0.000125134
0.000124258
0.000123323
0.000122329
0.000121277
0.000120166
0.000119016
0.000117853
0.000116669
0.000115463
0.000114226
0.00011296
0.000111644
0.000110254
0.00010879
0.000107258
0.000105681
0.00010411
0.000102562
0.000101046
9.95654e-05
9.80619e-05
9.65156e-05
9.49595e-05
9.34569e-05
9.21327e-05
9.1197e-05
9.06784e-05
9.06392e-05
9.42062e-05
9.42643e-05
9.47821e-05
9.5718e-05
9.7055e-05
9.86317e-05
0.000100256
0.000101878
0.000103444
0.000104967
0.000106527
0.000108124
0.00010975
0.000111387
0.00011298
0.000114499
0.00011594
0.000117296
0.000118597
0.000119866
0.000121107
0.000122327
0.00012353
0.000124722
0.000125881
0.000126981
0.000128019
0.000128996
0.000129912
0.000130768
0.000131566
0.000132305
0.000132989
0.000133619
0.000134197
0.000134725
0.000135205
0.00013564
0.000136032
0.000136382
0.000136692
0.000136965
0.000137202
0.000137405
0.000137574
0.000137711
0.000137817
0.000137893
0.000137939
0.000137955
0.000137942
0.0001379
0.000137827
0.000137725
0.000137591
0.000137425
0.000137226
0.000136993
0.000136724
0.000136417
0.000136071
0.000135684
0.000135254
0.000134778
0.000134255
0.000133682
0.000133058
0.00013238
0.000131645
0.000130853
0.000130003
0.000129092
0.00012812
0.000127087
0.000125992
0.000124837
0.000123644
0.000122439
0.000121217
0.000119973
0.0001187
0.000117397
0.000116041
0.000114605
0.000113087
0.000111495
0.000109853
0.000108218
0.000106608
0.000105034
0.000103498
0.000101933
0.000100315
9.86794e-05
9.70944e-05
9.56988e-05
9.47228e-05
9.41919e-05
9.41671e-05
9.78251e-05
9.78629e-05
9.83929e-05
9.93703e-05
0.000100782
0.000102446
0.000104155
0.000105853
0.000107484
0.000109065
0.000110685
0.000112345
0.000114036
0.00011574
0.000117396
0.00011897
0.000120458
0.000121855
0.000123193
0.000124498
0.000125777
0.000127035
0.000128279
0.000129515
0.00013072
0.000131863
0.000132942
0.000133957
0.000134909
0.000135799
0.000136628
0.000137397
0.000138108
0.000138762
0.000139363
0.000139912
0.000140411
0.000140863
0.00014127
0.000141633
0.000141956
0.00014224
0.000142486
0.000142696
0.000142872
0.000143015
0.000143125
0.000143204
0.000143252
0.000143269
0.000143255
0.000143211
0.000143136
0.000143029
0.00014289
0.000142718
0.000142511
0.000142269
0.000141989
0.00014167
0.000141311
0.000140909
0.000140461
0.000139967
0.000139423
0.000138828
0.000138179
0.000137474
0.000136711
0.000135888
0.000135003
0.000134057
0.000133047
0.000131973
0.000130835
0.000129635
0.000128396
0.00012715
0.000125888
0.000124607
0.000123297
0.000121958
0.000120563
0.000119079
0.000117507
0.000115853
0.000114144
0.000112443
0.00011077
0.000109136
0.000107542
0.000105913
0.000104221
0.000102503
0.000100831
9.93601e-05
9.83422e-05
9.77994e-05
9.7791e-05
0.000101535
0.000101546
0.000102086
0.000103106
0.000104599
0.000106357
0.000108156
0.000109934
0.000111635
0.000113275
0.000114956
0.000116681
0.00011844
0.000120213
0.000121934
0.000123564
0.000125101
0.000126538
0.000127912
0.000129253
0.000130569
0.000131867
0.000133152
0.000134434
0.000135685
0.000136872
0.000137993
0.000139048
0.000140037
0.000140961
0.000141822
0.000142621
0.000143359
0.000144039
0.000144663
0.000145233
0.000145752
0.000146221
0.000146644
0.000147022
0.000147357
0.000147652
0.000147907
0.000148126
0.000148309
0.000148457
0.000148572
0.000148653
0.000148703
0.00014872
0.000148706
0.00014866
0.000148582
0.000148471
0.000148327
0.000148148
0.000147933
0.000147682
0.000147391
0.00014706
0.000146687
0.000146269
0.000145805
0.000145291
0.000144726
0.000144108
0.000143434
0.000142701
0.000141908
0.000141053
0.000140135
0.000139151
0.000138102
0.000136987
0.000135805
0.000134558
0.000133273
0.000131985
0.000130683
0.000129365
0.000128018
0.000126642
0.000125208
0.000123677
0.00012205
0.000120332
0.000118553
0.000116784
0.000115046
0.00011335
0.000111698
0.000110004
0.000108233
0.000106428
0.000104665
0.000103115
0.000102054
0.0001015
0.00010151
0.000105337
0.000105319
0.000105872
0.000106939
0.000108515
0.000110371
0.000112263
0.000114126
0.000115897
0.000117597
0.000119342
0.000121133
0.000122961
0.000124806
0.000126593
0.000128281
0.000129866
0.000131343
0.000132753
0.000134131
0.000135484
0.00013682
0.000138149
0.000139477
0.000140776
0.000142008
0.000143172
0.000144267
0.000145294
0.000146254
0.000147148
0.000147977
0.000148744
0.00014945
0.000150098
0.000150689
0.000151228
0.000151715
0.000152154
0.000152546
0.000152894
0.0001532
0.000153465
0.000153692
0.000153882
0.000154035
0.000154154
0.000154239
0.00015429
0.000154309
0.000154294
0.000154246
0.000154165
0.00015405
0.0001539
0.000153715
0.000153492
0.000153231
0.000152929
0.000152586
0.000152198
0.000151764
0.000151282
0.000150749
0.000150163
0.000149521
0.000148821
0.00014806
0.000147237
0.000146349
0.000145396
0.000144375
0.000143285
0.000142127
0.0001409
0.000139605