/*--------------------------------*- C++ -*----------------------------------*\
| =========                 |                                                 |
| \\      /  F ield         | OpenFOAM: The Open Source CFD Toolbox           |
|  \\    /   O peration     | Version:  2.1.1                                 |
|   \\  /    A nd           | Web:      www.OpenFOAM.org                      |
|    \\/     M anipulation  |                                                 |
\*---------------------------------------------------------------------------*/
FoamFile
{
    version     2.0;
    format      ascii;
    class       volSymmTensorField;
    location    "0";
    object      TauDNS;
}
// * * * * * * * * * * * * * * * * * * * * * * * * * * * * * * * * * * * * * //

dimensions      [0 2 -2 0 0 0 0];

internalField   nonuniform List<symmTensor> 
14751
(
(5.574689102902983527e-07 6.342555882445259540e-09 0.000000000000000000e+00 5.360815520607366051e-10 0.000000000000000000e+00 1.994500579523895233e-07)
(5.574854665523251595e-07 6.481793549307761604e-09 0.000000000000000000e+00 5.468947707536139721e-10 0.000000000000000000e+00 2.024423384788767098e-07)
(5.572525386699007146e-07 6.621732496886605100e-09 0.000000000000000000e+00 5.599679111608343315e-10 0.000000000000000000e+00 2.054421657606631786e-07)
(5.569326737336401766e-07 6.736088891722986887e-09 0.000000000000000000e+00 5.722190730629603779e-10 0.000000000000000000e+00 2.084427023289980921e-07)
(5.569435089229503690e-07 6.850187162728852363e-09 0.000000000000000000e+00 5.872666683253231498e-10 0.000000000000000000e+00 2.116204130700697428e-07)
(5.572537161697030216e-07 6.980636711115464248e-09 0.000000000000000000e+00 6.031494608097729110e-10 0.000000000000000000e+00 2.148346695914708993e-07)
(5.573399077763462147e-07 7.105516705012774760e-09 0.000000000000000000e+00 6.218638313555221303e-10 0.000000000000000000e+00 2.181046136759289887e-07)
(5.575083935087925889e-07 7.211144079250381587e-09 0.000000000000000000e+00 6.395628641525055431e-10 0.000000000000000000e+00 2.214336053395404023e-07)
(5.577418312286315448e-07 7.331225563511112242e-09 0.000000000000000000e+00 6.583135649191747694e-10 0.000000000000000000e+00 2.246669644021724985e-07)
(5.577351533079014627e-07 7.444772980331683467e-09 0.000000000000000000e+00 6.766563484013883626e-10 0.000000000000000000e+00 2.276603095992206713e-07)
(5.574983336125774540e-07 7.537346464056058814e-09 0.000000000000000000e+00 6.952994749436850331e-10 0.000000000000000000e+00 2.305238836805018817e-07)
(5.573985422127188319e-07 7.613358616220887972e-09 0.000000000000000000e+00 7.164436856545124865e-10 0.000000000000000000e+00 2.333864255585135434e-07)
(5.575528776506059211e-07 7.692730502892145940e-09 0.000000000000000000e+00 7.381938334091146856e-10 0.000000000000000000e+00 2.362097626112330094e-07)
(5.576965696817650857e-07 7.767870596442490328e-09 0.000000000000000000e+00 7.596455818450624578e-10 0.000000000000000000e+00 2.387717639282954911e-07)
(5.577726898155229093e-07 7.824792894921637868e-09 0.000000000000000000e+00 7.807973090121395979e-10 0.000000000000000000e+00 2.413046828182867273e-07)
(5.583716581321451028e-07 7.876813993563190097e-09 0.000000000000000000e+00 8.039404896000029886e-10 0.000000000000000000e+00 2.434755556910733529e-07)
(5.595904804198749641e-07 7.927815625932107936e-09 0.000000000000000000e+00 8.276792351238291278e-10 0.000000000000000000e+00 2.457894533872744289e-07)
(5.617142639412917506e-07 7.991948685394509864e-09 0.000000000000000000e+00 8.528912660081058870e-10 0.000000000000000000e+00 2.485469480297543934e-07)
(5.638865205208783892e-07 8.067153318748124291e-09 0.000000000000000000e+00 8.798283633288866165e-10 0.000000000000000000e+00 2.512661303212764105e-07)
(5.660277818619841815e-07 8.121394863281357198e-09 0.000000000000000000e+00 9.043256270183024656e-10 0.000000000000000000e+00 2.536460684466301255e-07)
(5.683281722778811696e-07 8.185282118502641399e-09 0.000000000000000000e+00 9.296215969605070905e-10 0.000000000000000000e+00 2.560032374620371553e-07)
(5.707553597859394880e-07 8.211560455455260133e-09 0.000000000000000000e+00 9.548556995277133952e-10 0.000000000000000000e+00 2.587030753479589555e-07)
(5.742357729339305878e-07 8.257956902576900597e-09 0.000000000000000000e+00 9.822571452989675551e-10 0.000000000000000000e+00 2.617210666274732121e-07)
(5.789195377030995103e-07 8.307933060593647524e-09 0.000000000000000000e+00 1.007485598856601315e-09 0.000000000000000000e+00 2.646383832208373481e-07)
(5.840848039391645940e-07 8.390288007883287838e-09 0.000000000000000000e+00 1.034447094109070712e-09 0.000000000000000000e+00 2.674213822402188405e-07)
(5.890255873503310871e-07 8.464186788596688793e-09 0.000000000000000000e+00 1.060041574475718118e-09 0.000000000000000000e+00 2.701456588928883391e-07)
(5.933419286549633002e-07 8.529245402956256108e-09 0.000000000000000000e+00 1.089453293775968004e-09 0.000000000000000000e+00 2.730918312504258635e-07)
(5.976857874999471326e-07 8.561351893507210595e-09 0.000000000000000000e+00 1.115162046112861100e-09 0.000000000000000000e+00 2.759826923758722317e-07)
(6.023807631313532503e-07 8.640043036821022249e-09 0.000000000000000000e+00 1.144420179814422484e-09 0.000000000000000000e+00 2.792087056928285189e-07)
(6.064539266966873337e-07 8.650924276174696830e-09 0.000000000000000000e+00 1.170076744602127814e-09 0.000000000000000000e+00 2.819754845107290149e-07)
(6.110688541984113836e-07 8.663822889981877116e-09 0.000000000000000000e+00 1.191248601148568162e-09 0.000000000000000000e+00 2.845371272483832925e-07)
(6.161433388095344766e-07 8.715642581990215392e-09 0.000000000000000000e+00 1.216533908319630750e-09 0.000000000000000000e+00 2.874325577729561951e-07)
(6.215658285845684927e-07 8.761917206730020263e-09 0.000000000000000000e+00 1.246493017147221690e-09 0.000000000000000000e+00 2.899228508461336166e-07)
(6.274956908400478470e-07 8.837466782584539279e-09 0.000000000000000000e+00 1.274531381701723610e-09 0.000000000000000000e+00 2.919148266932379769e-07)
(6.328666415486923986e-07 8.885404003033585199e-09 0.000000000000000000e+00 1.301485242745242584e-09 0.000000000000000000e+00 2.940296742729954649e-07)
(6.385129159878861131e-07 8.928892566190099817e-09 0.000000000000000000e+00 1.332431279362584788e-09 0.000000000000000000e+00 2.958646904806443161e-07)
(6.426161905072696782e-07 8.906543097906094738e-09 0.000000000000000000e+00 1.352721340112539196e-09 0.000000000000000000e+00 2.969757695268672592e-07)
(6.461550401162922412e-07 8.877263450682205085e-09 0.000000000000000000e+00 1.371543482940962907e-09 0.000000000000000000e+00 2.983211630756978760e-07)
(6.500983053444607945e-07 8.806863267969813206e-09 0.000000000000000000e+00 1.384716300926296920e-09 0.000000000000000000e+00 2.990310834623147212e-07)
(6.549766127383657649e-07 8.747159165206723723e-09 0.000000000000000000e+00 1.393279746519481332e-09 0.000000000000000000e+00 2.995284882385954208e-07)
(6.599097646066223142e-07 8.689629264626540610e-09 0.000000000000000000e+00 1.400767140126549525e-09 0.000000000000000000e+00 3.002278278147828440e-07)
(6.660796133743761932e-07 8.725990036409183470e-09 0.000000000000000000e+00 1.417430247878172347e-09 0.000000000000000000e+00 3.012754618818534204e-07)
(6.696800897173437365e-07 8.732941900194608324e-09 0.000000000000000000e+00 1.434662336541474694e-09 0.000000000000000000e+00 3.014839882788919881e-07)
(6.723116882242591180e-07 8.667535261547841882e-09 0.000000000000000000e+00 1.435245377021427746e-09 0.000000000000000000e+00 3.003060201949876551e-07)
(6.748145262887544307e-07 8.573634687266579082e-09 0.000000000000000000e+00 1.433331960295373889e-09 0.000000000000000000e+00 2.984988102585742282e-07)
(6.756708757731610456e-07 8.470662199324132297e-09 0.000000000000000000e+00 1.419136020988611501e-09 0.000000000000000000e+00 2.957296160733076825e-07)
(6.741971000675665517e-07 8.329675513675745570e-09 0.000000000000000000e+00 1.397230312954141222e-09 0.000000000000000000e+00 2.925609995141481434e-07)
(6.724294771192499591e-07 8.146482508186423454e-09 0.000000000000000000e+00 1.378567396759957658e-09 0.000000000000000000e+00 2.892576389898040486e-07)
(6.711055426904891955e-07 7.990834650315962764e-09 0.000000000000000000e+00 1.354622953903625299e-09 0.000000000000000000e+00 2.856797044518094249e-07)
(6.686951081750433701e-07 7.851483746525639407e-09 0.000000000000000000e+00 1.327393332609301797e-09 0.000000000000000000e+00 2.820388179971974360e-07)
(6.636698159198193126e-07 7.645651654514938797e-09 0.000000000000000000e+00 1.295143093903969528e-09 0.000000000000000000e+00 2.771135632008231792e-07)
(6.578373232077261979e-07 7.360431772914947475e-09 0.000000000000000000e+00 1.254288389952604910e-09 0.000000000000000000e+00 2.711651731975004741e-07)
(6.530615227304082776e-07 7.117495671580483889e-09 0.000000000000000000e+00 1.221528249870071722e-09 0.000000000000000000e+00 2.652318195289223463e-07)
(6.483166717659745598e-07 6.917484718617931243e-09 0.000000000000000000e+00 1.191101396383766316e-09 0.000000000000000000e+00 2.595039075863829619e-07)
(6.431900843772387934e-07 6.698528200883877508e-09 0.000000000000000000e+00 1.155649389422200081e-09 0.000000000000000000e+00 2.535628787315077246e-07)
(6.384921797020306591e-07 6.463667087572362976e-09 0.000000000000000000e+00 1.113150688180686967e-09 0.000000000000000000e+00 2.467733166837962421e-07)
(6.342731650888394303e-07 6.272301610913400004e-09 0.000000000000000000e+00 1.064599943481374448e-09 0.000000000000000000e+00 2.402595998652378392e-07)
(6.295529430286864162e-07 6.106152284214404441e-09 0.000000000000000000e+00 1.017436186160307770e-09 0.000000000000000000e+00 2.343546283026966307e-07)
(6.245303015461524726e-07 5.929607582173357640e-09 0.000000000000000000e+00 9.782670689624635842e-10 0.000000000000000000e+00 2.293311402927946818e-07)
(6.195013993550669482e-07 5.766958974550197579e-09 0.000000000000000000e+00 9.477995781241716763e-10 0.000000000000000000e+00 2.243756402830095511e-07)
(6.140802152998719933e-07 5.577737782803531661e-09 0.000000000000000000e+00 9.096378299865511031e-10 0.000000000000000000e+00 2.192138323502335052e-07)
(6.088147577848487194e-07 5.412162409964087370e-09 0.000000000000000000e+00 8.728396620488001207e-10 0.000000000000000000e+00 2.143988122264421015e-07)
(6.035980519722013907e-07 5.275135646110114827e-09 0.000000000000000000e+00 8.413540771152992994e-10 0.000000000000000000e+00 2.096164628976733124e-07)
(5.986250044045282613e-07 5.118322739567793546e-09 0.000000000000000000e+00 8.022380268520511916e-10 0.000000000000000000e+00 2.048552183353025586e-07)
(5.935841551666298398e-07 4.984824182438314378e-09 0.000000000000000000e+00 7.656618274112895780e-10 0.000000000000000000e+00 2.004215050802584337e-07)
(5.888749065071387562e-07 4.866817903277376963e-09 0.000000000000000000e+00 7.321322850124604195e-10 0.000000000000000000e+00 1.962388140558479541e-07)
(5.851616545896892481e-07 4.737880469253081142e-09 0.000000000000000000e+00 6.995636651301615239e-10 0.000000000000000000e+00 1.925193558294987785e-07)
(5.823187267610535709e-07 4.682308312021671452e-09 0.000000000000000000e+00 6.738665957517364681e-10 0.000000000000000000e+00 1.896443541716335327e-07)
(5.790719611392697160e-07 4.625128981220877367e-09 0.000000000000000000e+00 6.514484871735237991e-10 0.000000000000000000e+00 1.871114931369239632e-07)
(5.758511290804845717e-07 4.550884626370149133e-09 0.000000000000000000e+00 6.304895171704272894e-10 0.000000000000000000e+00 1.842197235230704452e-07)
(5.728233066316500366e-07 4.501978175973510968e-09 0.000000000000000000e+00 6.113401397807108870e-10 0.000000000000000000e+00 1.812757481596348473e-07)
(5.699301841449974833e-07 4.455155328785086157e-09 0.000000000000000000e+00 5.884434018600928669e-10 0.000000000000000000e+00 1.784866528424418007e-07)
(5.675337724568091815e-07 4.412910870204414282e-09 0.000000000000000000e+00 5.638508079595209582e-10 0.000000000000000000e+00 1.758393154719464509e-07)
(5.656385575798665081e-07 4.392982396831695804e-09 0.000000000000000000e+00 5.469280325029960128e-10 0.000000000000000000e+00 1.737975658831989141e-07)
(5.639577778034035093e-07 4.403655757328547630e-09 0.000000000000000000e+00 5.356290936978566649e-10 0.000000000000000000e+00 1.723822534386486966e-07)
(5.620219492082888712e-07 4.422657729096476953e-09 0.000000000000000000e+00 5.252486171035388615e-10 0.000000000000000000e+00 1.710146173308988605e-07)
(5.599825650785142394e-07 4.416769067418052119e-09 0.000000000000000000e+00 5.114192853636594072e-10 0.000000000000000000e+00 1.697792100893254694e-07)
(5.581615690370157009e-07 4.435901288442084015e-09 0.000000000000000000e+00 5.025395342981520364e-10 0.000000000000000000e+00 1.690098285789935144e-07)
(5.563818985459946446e-07 4.449472285136230118e-09 0.000000000000000000e+00 4.947944938020773164e-10 0.000000000000000000e+00 1.686793553822888541e-07)
(5.547661192458022786e-07 4.471585763507991496e-09 0.000000000000000000e+00 4.882158382888891938e-10 0.000000000000000000e+00 1.684159110274054984e-07)
(5.529398674119043078e-07 4.502165374288679008e-09 0.000000000000000000e+00 4.835992695556564832e-10 0.000000000000000000e+00 1.683593416689765353e-07)
(5.512542984367806289e-07 4.505558368034605090e-09 0.000000000000000000e+00 4.756320719680353085e-10 0.000000000000000000e+00 1.685133845188683339e-07)
(5.500982946082518064e-07 4.541324194327789982e-09 0.000000000000000000e+00 4.690777045852126702e-10 0.000000000000000000e+00 1.690241491930798400e-07)
(5.491078812697606851e-07 4.569118523562890713e-09 0.000000000000000000e+00 4.632459929021572354e-10 0.000000000000000000e+00 1.693720002240138402e-07)
(5.489263344900741739e-07 4.597147251912460957e-09 0.000000000000000000e+00 4.572485095346501372e-10 0.000000000000000000e+00 1.696974273728103827e-07)
(5.496666626330458352e-07 4.660252613011578655e-09 0.000000000000000000e+00 4.555287314618543826e-10 0.000000000000000000e+00 1.704002081652072688e-07)
(5.505790938664700666e-07 4.752143909658115020e-09 0.000000000000000000e+00 4.570402890801319955e-10 0.000000000000000000e+00 1.714298389125378847e-07)
(5.512638063684717364e-07 4.849120985790052657e-09 0.000000000000000000e+00 4.570273657917282411e-10 0.000000000000000000e+00 1.727630250959221216e-07)
(5.517846670043981363e-07 4.936236448929225049e-09 0.000000000000000000e+00 4.561217923799325579e-10 0.000000000000000000e+00 1.741866050981176163e-07)
(5.524339083192780242e-07 5.039316243787963318e-09 0.000000000000000000e+00 4.580014588318741097e-10 0.000000000000000000e+00 1.756050393388349096e-07)
(5.530296090857823955e-07 5.138288218621770665e-09 0.000000000000000000e+00 4.596814289170782200e-10 0.000000000000000000e+00 1.770921031054523841e-07)
(5.536774938880410717e-07 5.252909132298671500e-09 0.000000000000000000e+00 4.613929367900940579e-10 0.000000000000000000e+00 1.787173683244468480e-07)
(5.542067964826262529e-07 5.375699112612830623e-09 0.000000000000000000e+00 4.672621619394275200e-10 0.000000000000000000e+00 1.806568623814452240e-07)
(5.549077354269687415e-07 5.498526902508123989e-09 0.000000000000000000e+00 4.744528870287948483e-10 0.000000000000000000e+00 1.827890677205043978e-07)
(5.555470645573057103e-07 5.640663961230419684e-09 0.000000000000000000e+00 4.822937134684895732e-10 0.000000000000000000e+00 1.852206063039543468e-07)
(5.559609799521764848e-07 5.772257849388694313e-09 0.000000000000000000e+00 4.927569076133063616e-10 0.000000000000000000e+00 1.878517279640184370e-07)
(5.566450127382456568e-07 5.908198220456591145e-09 0.000000000000000000e+00 5.060459516170443948e-10 0.000000000000000000e+00 1.907441358037619951e-07)
(5.573985689336072800e-07 6.061669597838822415e-09 0.000000000000000000e+00 5.171223457012729409e-10 0.000000000000000000e+00 1.937135207478587192e-07)
(5.574911381679340193e-07 6.208567815969746517e-09 0.000000000000000000e+00 5.255303335018288660e-10 0.000000000000000000e+00 1.964958952427125573e-07)
(1.697492831833748070e-06 1.931308266204342182e-08 0.000000000000000000e+00 1.632368326024740814e-09 0.000000000000000000e+00 6.073254264649508940e-07)
(1.697543244296944559e-06 1.973710399412290165e-08 0.000000000000000000e+00 1.665298314586131419e-09 0.000000000000000000e+00 6.164379303741658872e-07)
(1.696833726792707375e-06 2.016324577334568523e-08 0.000000000000000000e+00 1.705109121275390420e-09 0.000000000000000000e+00 6.255733453189769049e-07)
(1.698644479733800541e-06 2.054515882543971210e-08 0.000000000000000000e+00 1.745280118937100533e-09 0.000000000000000000e+00 6.357533545252630264e-07)
(1.701462588541372381e-06 2.092746689653882584e-08 0.000000000000000000e+00 1.794117044149829736e-09 0.000000000000000000e+00 6.465037721535632585e-07)
(1.705196648259900320e-06 2.136091668686442489e-08 0.000000000000000000e+00 1.845656306754858494e-09 0.000000000000000000e+00 6.573975279488344222e-07)
(1.708246866506150017e-06 2.177855240241808940e-08 0.000000000000000000e+00 1.906033612157419010e-09 0.000000000000000000e+00 6.684941494273762852e-07)
(1.711551126100401573e-06 2.213840722916462837e-08 0.000000000000000000e+00 1.963482781669040686e-09 0.000000000000000000e+00 6.798058743839645470e-07)
(1.715056285522909679e-06 2.254363272159510858e-08 0.000000000000000000e+00 2.024340113614397879e-09 0.000000000000000000e+00 6.908550356043345780e-07)
(1.717824086552671434e-06 2.293000550437463495e-08 0.000000000000000000e+00 2.084126004009994888e-09 0.000000000000000000e+00 7.011974857315693743e-07)
(1.719881842252715910e-06 2.325277551426489782e-08 0.000000000000000000e+00 2.145027599335831917e-09 0.000000000000000000e+00 7.111708184317018667e-07)
(1.722361735439926697e-06 2.352536988962664327e-08 0.000000000000000000e+00 2.213850036371541569e-09 0.000000000000000000e+00 7.211697293284298931e-07)
(1.725626539361197156e-06 2.380924185696998943e-08 0.000000000000000000e+00 2.284760334831738457e-09 0.000000000000000000e+00 7.310750800903415687e-07)
(1.728859421319254290e-06 2.408063848159362791e-08 0.000000000000000000e+00 2.354946565225020342e-09 0.000000000000000000e+00 7.401980137359963670e-07)
(1.731884788425228934e-06 2.429617260162832496e-08 0.000000000000000000e+00 2.424426366760834167e-09 0.000000000000000000e+00 7.492563858558133333e-07)
(1.736537723655985681e-06 2.449709133370073302e-08 0.000000000000000000e+00 2.500303136861437357e-09 0.000000000000000000e+00 7.572134868388659962e-07)
(1.745875193346228522e-06 2.486331708804804667e-08 0.000000000000000000e+00 2.614804230341504960e-09 0.000000000000000000e+00 7.662456069567009677e-07)
(1.752493339779352719e-06 2.506365994034189734e-08 0.000000000000000000e+00 2.694060227845548218e-09 0.000000000000000000e+00 7.748327422322115987e-07)
(1.766434569870836346e-06 2.560784449997073614e-08 0.000000000000000000e+00 2.843972738063944338e-09 0.000000000000000000e+00 7.855078874592327384e-07)
(1.780323069440813587e-06 2.608971432559637343e-08 0.000000000000000000e+00 2.989733044922949773e-09 0.000000000000000000e+00 7.951473198101030904e-07)
(1.794767202721177812e-06 2.660441650883799136e-08 0.000000000000000000e+00 3.141501643155885761e-09 0.000000000000000000e+00 8.047393169574413612e-07)
(1.809692374173266396e-06 2.700374939843122979e-08 0.000000000000000000e+00 3.296531894256320637e-09 0.000000000000000000e+00 8.154385557393681253e-07)
(1.820720125887966282e-06 2.715447605507536174e-08 0.000000000000000000e+00 3.389865452489007346e-09 0.000000000000000000e+00 8.249046767996786735e-07)
(1.842845850352041764e-06 2.763340315370367669e-08 0.000000000000000000e+00 3.548381099344413500e-09 0.000000000000000000e+00 8.363088658041909882e-07)
(1.866672413642980848e-06 2.822323419244282089e-08 0.000000000000000000e+00 3.718415666392331594e-09 0.000000000000000000e+00 8.473309116449024314e-07)
(1.889760759497653617e-06 2.878395440624398961e-08 0.000000000000000000e+00 3.883048821093834135e-09 0.000000000000000000e+00 8.581723212686127456e-07)
(1.903668537974035783e-06 2.900494827753202662e-08 0.000000000000000000e+00 3.990473156267243869e-09 0.000000000000000000e+00 8.674705600579274100e-07)
(1.925145896668206550e-06 2.944188576054725658e-08 0.000000000000000000e+00 4.164000530824928796e-09 0.000000000000000000e+00 8.789223186115622638e-07)
(1.940156935777508724e-06 2.970161865940665350e-08 0.000000000000000000e+00 4.269019200636955088e-09 0.000000000000000000e+00 8.890785247190768784e-07)
(1.960933476042466030e-06 3.007512952447756099e-08 0.000000000000000000e+00 4.447152239812144743e-09 0.000000000000000000e+00 9.001508754793181254e-07)
(1.975749992582940850e-06 3.012047203857422382e-08 0.000000000000000000e+00 4.526122613733839854e-09 0.000000000000000000e+00 9.082213816219673953e-07)
(1.999841357167771702e-06 3.062710750046388925e-08 0.000000000000000000e+00 4.708127351023807997e-09 0.000000000000000000e+00 9.197125261839939520e-07)
(2.017402225849686566e-06 3.078470108428171851e-08 0.000000000000000000e+00 4.824488777928306819e-09 0.000000000000000000e+00 9.275593212428576347e-07)
(2.036344605310866396e-06 3.102714777376974010e-08 0.000000000000000000e+00 4.924725831956246627e-09 0.000000000000000000e+00 9.338062885571359243e-07)
(2.061650369037616260e-06 3.152619455125293594e-08 0.000000000000000000e+00 5.117636208801811917e-09 0.000000000000000000e+00 9.428513001478747535e-07)
(2.079956407677188377e-06 3.167164902464712146e-08 0.000000000000000000e+00 5.237429825383334648e-09 0.000000000000000000e+00 9.486274296782571684e-07)
(2.093341364458169069e-06 3.159356806922533543e-08 0.000000000000000000e+00 5.313882501883279559e-09 0.000000000000000000e+00 9.521206842249104597e-07)
(2.104888917947255460e-06 3.149457307824726055e-08 0.000000000000000000e+00 5.383017890234020353e-09 0.000000000000000000e+00 9.563232776418380565e-07)
(2.125812283770055677e-06 3.159008515012938774e-08 0.000000000000000000e+00 5.528532554606674836e-09 0.000000000000000000e+00 9.609058361454249452e-07)
(2.141844341987417003e-06 3.137219342418986144e-08 0.000000000000000000e+00 5.560167393418249845e-09 0.000000000000000000e+00 9.624174110956482739e-07)
(2.157988869255325895e-06 3.117195753103050359e-08 0.000000000000000000e+00 5.587329045091196419e-09 0.000000000000000000e+00 9.645965348943409768e-07)
(2.177723651675192677e-06 3.127871996000981609e-08 0.000000000000000000e+00 5.645817464928046897e-09 0.000000000000000000e+00 9.678429624700466015e-07)
(2.189695392188473076e-06 3.130338194721550917e-08 0.000000000000000000e+00 5.710601524590058985e-09 0.000000000000000000e+00 9.683694065706938457e-07)
(2.198282021013064729e-06 3.107579858855651718e-08 0.000000000000000000e+00 5.710384074535723311e-09 0.000000000000000000e+00 9.645221722285051382e-07)
(2.206457713347561112e-06 3.073176357512561779e-08 0.000000000000000000e+00 5.699035650067075308e-09 0.000000000000000000e+00 9.585922172835777946e-07)
(2.209340908591963290e-06 3.037922751517964599e-08 0.000000000000000000e+00 5.645890508990095426e-09 0.000000000000000000e+00 9.497393352353771710e-07)
(2.204877325924534839e-06 2.987991884020214324e-08 0.000000000000000000e+00 5.557065300244024767e-09 0.000000000000000000e+00 9.395163772299724872e-07)
(2.199390504556417986e-06 2.923300963352602813e-08 0.000000000000000000e+00 5.480286188344345571e-09 0.000000000000000000e+00 9.289242112693602474e-07)
(2.195270612288478762e-06 2.869062662932518263e-08 0.000000000000000000e+00 5.388185880013907420e-09 0.000000000000000000e+00 9.174757193663364715e-07)
(2.187767109862898354e-06 2.819524497405993101e-08 0.000000000000000000e+00 5.279547829707341931e-09 0.000000000000000000e+00 9.057099806937232218e-07)
(2.171876817838244542e-06 2.748076287199302292e-08 0.000000000000000000e+00 5.150693560809490386e-09 0.000000000000000000e+00 8.899016087159712789e-07)
(2.153218723404929851e-06 2.648128894873595154e-08 0.000000000000000000e+00 4.989313553120882042e-09 0.000000000000000000e+00 8.708856409135756420e-07)
(2.137920608466769051e-06 2.562966167505936789e-08 0.000000000000000000e+00 4.861605095553603750e-09 0.000000000000000000e+00 8.519312419253002552e-07)
(2.122707374555755982e-06 2.490867597105554501e-08 0.000000000000000000e+00 4.733677580310802888e-09 0.000000000000000000e+00 8.334903813100098103e-07)
(2.106512626041587125e-06 2.416017649594663728e-08 0.000000000000000000e+00 4.600422662072033235e-09 0.000000000000000000e+00 8.146060730900185412e-07)
(2.091575375301184320e-06 2.332515295814850695e-08 0.000000000000000000e+00 4.426260510553744039e-09 0.000000000000000000e+00 7.928354705667933435e-07)
(2.078166230412665944e-06 2.265591943350791728e-08 0.000000000000000000e+00 4.239797786103844132e-09 0.000000000000000000e+00 7.720880455443061538e-07)
(2.063125109622502425e-06 2.206412271353795155e-08 0.000000000000000000e+00 4.052462738568929655e-09 0.000000000000000000e+00 7.532179342920091962e-07)
(2.047109043188417120e-06 2.145003500931096806e-08 0.000000000000000000e+00 3.900385961174328262e-09 0.000000000000000000e+00 7.371732207647157015e-07)
(2.030899401088129283e-06 2.086471648987637059e-08 0.000000000000000000e+00 3.772467994820187648e-09 0.000000000000000000e+00 7.212702792246202788e-07)
(2.005430126558382872e-06 1.997075556000908191e-08 0.000000000000000000e+00 3.559067028544479758e-09 0.000000000000000000e+00 7.030024329734594069e-07)
(1.988664733228053441e-06 1.940497546217369682e-08 0.000000000000000000e+00 3.418776511823460951e-09 0.000000000000000000e+00 6.876903389737974572e-07)
(1.971957996345585651e-06 1.892145461110822877e-08 0.000000000000000000e+00 3.293173972611652195e-09 0.000000000000000000e+00 6.724168388784866686e-07)
(1.956063953504647619e-06 1.837844869891762420e-08 0.000000000000000000e+00 3.146531006121059810e-09 0.000000000000000000e+00 6.572969482262588944e-07)
(1.939907919866177036e-06 1.790459635514454069e-08 0.000000000000000000e+00 3.001558161775303092e-09 0.000000000000000000e+00 6.431508658629447785e-07)
(1.916942493530880125e-06 1.729512732450140695e-08 0.000000000000000000e+00 2.822911609475536122e-09 0.000000000000000000e+00 6.282343487422353354e-07)
(1.905096404098267109e-06 1.685680916694254281e-08 0.000000000000000000e+00 2.701756415804121546e-09 0.000000000000000000e+00 6.164729815221482470e-07)
(1.895909261517573931e-06 1.665259889260721868e-08 0.000000000000000000e+00 2.599498857504626314e-09 0.000000000000000000e+00 6.073366590748221140e-07)
(1.877642581702153271e-06 1.625958662944777730e-08 0.000000000000000000e+00 2.467762273434713789e-09 0.000000000000000000e+00 5.976973978124670077e-07)
(1.867313781476959396e-06 1.600734884991622500e-08 0.000000000000000000e+00 2.389049832496967519e-09 0.000000000000000000e+00 5.885324144509475414e-07)
(1.849868031879635072e-06 1.565248276323498343e-08 0.000000000000000000e+00 2.276390826409503034e-09 0.000000000000000000e+00 5.776846724208977412e-07)
(1.840606822481203416e-06 1.549406334896427639e-08 0.000000000000000000e+00 2.192075383659898090e-09 0.000000000000000000e+00 5.688752853609247540e-07)
(1.825176346617393285e-06 1.516522856196080968e-08 0.000000000000000000e+00 2.061553969330599833e-09 0.000000000000000000e+00 5.589748425591401831e-07)
(1.819109727993573992e-06 1.510049894922286277e-08 0.000000000000000000e+00 2.000827879894337679e-09 0.000000000000000000e+00 5.525479668988247120e-07)
(1.806026630896327920e-06 1.494654006745425330e-08 0.000000000000000000e+00 1.921806654682209713e-09 0.000000000000000000e+00 5.465700865688335496e-07)
(1.792186576770007771e-06 1.482072513685204199e-08 0.000000000000000000e+00 1.847548976405812040e-09 0.000000000000000000e+00 5.407593930882580286e-07)
(1.785694391644824574e-06 1.480449496658957159e-08 0.000000000000000000e+00 1.799559106100598528e-09 0.000000000000000000e+00 5.369023811207044761e-07)
(1.772284475013203833e-06 1.467880585287379132e-08 0.000000000000000000e+00 1.732562236444835126e-09 0.000000000000000000e+00 5.329938935813129913e-07)
(1.759028960697580159e-06 1.453572893760024900e-08 0.000000000000000000e+00 1.670509711031158393e-09 0.000000000000000000e+00 5.304540663061870259e-07)
(1.746327619229018267e-06 1.441686388718661558e-08 0.000000000000000000e+00 1.612796320638309015e-09 0.000000000000000000e+00 5.281201813505083895e-07)
(1.740587979921661233e-06 1.451488753936874157e-08 0.000000000000000000e+00 1.597512461422366838e-09 0.000000000000000000e+00 5.279632492574885439e-07)
(1.727750102644553793e-06 1.433525044598488871e-08 0.000000000000000000e+00 1.536933412277066386e-09 0.000000000000000000e+00 5.269137804947535312e-07)
(1.716588291524270184e-06 1.425469767168601181e-08 0.000000000000000000e+00 1.481518163055343112e-09 0.000000000000000000e+00 5.269595901665887723e-07)
(1.707726772790682700e-06 1.420992106786247564e-08 0.000000000000000000e+00 1.440708384945360816e-09 0.000000000000000000e+00 5.267463245491866042e-07)
(1.704415713790962197e-06 1.427407250073974191e-08 0.000000000000000000e+00 1.419762869764921713e-09 0.000000000000000000e+00 5.269094633542819151e-07)
(1.703964705413441745e-06 1.444660019526603728e-08 0.000000000000000000e+00 1.412135474873251167e-09 0.000000000000000000e+00 5.282386193627111453e-07)
(1.704040595678329281e-06 1.470769933055931772e-08 0.000000000000000000e+00 1.414548372589447361e-09 0.000000000000000000e+00 5.305726273053713314e-07)
(1.703404021433932803e-06 1.498357540875118444e-08 0.000000000000000000e+00 1.412212309926578393e-09 0.000000000000000000e+00 5.338349504557419672e-07)
(1.702254606686175956e-06 1.522811571771052050e-08 0.000000000000000000e+00 1.407137266243761466e-09 0.000000000000000000e+00 5.373633538463238507e-07)
(1.701495501368038166e-06 1.552092326517024428e-08 0.000000000000000000e+00 1.410642910119564964e-09 0.000000000000000000e+00 5.408613633024065463e-07)
(1.700565095475223158e-06 1.580007826158302186e-08 0.000000000000000000e+00 1.413520606900389556e-09 0.000000000000000000e+00 5.445560754605135526e-07)
(1.699789069321903927e-06 1.612627082757260846e-08 0.000000000000000000e+00 1.416472077698091942e-09 0.000000000000000000e+00 5.486597857864539500e-07)