/*--------------------------------*- C++ -*----------------------------------*\
| =========                 |                                                 |
| \\      /  F ield         | OpenFOAM: The Open Source CFD Toolbox           |
|  \\    /   O peration     | Version:  2.1.1                                 |
|   \\  /    A nd           | Web:      www.OpenFOAM.org                      |
|    \\/     M anipulation  |                                                 |
\*---------------------------------------------------------------------------*/
FoamFile
{
    version     2.0;
    format      ascii;
    class       volSymmTensorField;
    location    "0";
    object      TauDNS;
}
// * * * * * * * * * * * * * * * * * * * * * * * * * * * * * * * * * * * * * //

dimensions      [0 2 -2 0 0 0 0];

internalField   nonuniform List<symmTensor> 
14751
(
(9.099548774957596771e-07 1.269167819694948901e-08 0.000000000000000000e+00 1.279954901693538382e-09 0.000000000000000000e+00 3.109566117288462960e-07)
(9.114540445879164938e-07 1.285656918523542386e-08 0.000000000000000000e+00 1.308146019814737939e-09 0.000000000000000000e+00 3.148357657986628352e-07)
(9.128784293425432718e-07 1.300354053327523201e-08 0.000000000000000000e+00 1.338595098648084750e-09 0.000000000000000000e+00 3.188866532517786383e-07)
(9.144306327672985921e-07 1.317748387472758737e-08 0.000000000000000000e+00 1.374199676604999812e-09 0.000000000000000000e+00 3.228576822027311712e-07)
(9.155295980407445783e-07 1.333581363678816415e-08 0.000000000000000000e+00 1.410359606332010880e-09 0.000000000000000000e+00 3.262614199169962510e-07)
(9.161931955393311791e-07 1.346232403572283775e-08 0.000000000000000000e+00 1.443289825563724449e-09 0.000000000000000000e+00 3.293967090283525201e-07)
(9.166004743987721672e-07 1.355590607265516979e-08 0.000000000000000000e+00 1.471590716958342927e-09 0.000000000000000000e+00 3.324932979914841761e-07)
(9.170195812910435422e-07 1.364483632711279492e-08 0.000000000000000000e+00 1.498599099999859480e-09 0.000000000000000000e+00 3.358737440033091244e-07)
(9.180416476675069868e-07 1.373190045953113799e-08 0.000000000000000000e+00 1.530582898227192091e-09 0.000000000000000000e+00 3.391649328305961387e-07)
(9.201470584969285140e-07 1.383819782849635366e-08 0.000000000000000000e+00 1.562900061257399636e-09 0.000000000000000000e+00 3.425717341863653735e-07)
(9.226241794889287032e-07 1.396571383844046169e-08 0.000000000000000000e+00 1.600379595579570056e-09 0.000000000000000000e+00 3.456659711311346701e-07)
(9.247181852773795916e-07 1.407608265291896536e-08 0.000000000000000000e+00 1.632559444041285577e-09 0.000000000000000000e+00 3.485392508741680203e-07)
(9.255278427962421620e-07 1.415634652975680753e-08 0.000000000000000000e+00 1.658683109612589240e-09 0.000000000000000000e+00 3.509873837159629412e-07)
(9.261034475477239273e-07 1.416401270541654348e-08 0.000000000000000000e+00 1.683227103546563856e-09 0.000000000000000000e+00 3.533206301849749481e-07)
(9.272734889368185103e-07 1.417281715308794897e-08 0.000000000000000000e+00 1.706641133920875685e-09 0.000000000000000000e+00 3.556807752375230979e-07)
(9.291079147860979691e-07 1.419464752030323501e-08 0.000000000000000000e+00 1.733174672203281632e-09 0.000000000000000000e+00 3.580332211824293189e-07)
(9.309306752412780220e-07 1.423475103965886323e-08 0.000000000000000000e+00 1.762337886388223850e-09 0.000000000000000000e+00 3.605576505895429178e-07)
(9.329490778125547224e-07 1.421931841203110913e-08 0.000000000000000000e+00 1.789956154053585877e-09 0.000000000000000000e+00 3.623433944871666890e-07)
(9.347750036371416657e-07 1.422752522821066816e-08 0.000000000000000000e+00 1.813011978867371219e-09 0.000000000000000000e+00 3.639202736699582512e-07)
(9.372108103966915087e-07 1.419445116559669092e-08 0.000000000000000000e+00 1.837136835423603111e-09 0.000000000000000000e+00 3.655668528403473952e-07)
(9.404610334406359959e-07 1.419122506966957337e-08 0.000000000000000000e+00 1.857371122829822298e-09 0.000000000000000000e+00 3.674111697749671040e-07)
(9.435973984459953946e-07 1.418651676313152421e-08 0.000000000000000000e+00 1.886482524383952133e-09 0.000000000000000000e+00 3.691570324223414124e-07)
(9.464909678892788355e-07 1.417635572591702765e-08 0.000000000000000000e+00 1.913500897069552142e-09 0.000000000000000000e+00 3.701219009405874634e-07)
(9.502328256164144465e-07 1.413253995444984423e-08 0.000000000000000000e+00 1.931734515434333783e-09 0.000000000000000000e+00 3.710077225080866055e-07)
(9.544159159647535307e-07 1.411519738339946719e-08 0.000000000000000000e+00 1.946804775688890294e-09 0.000000000000000000e+00 3.717738353810769876e-07)
(9.575985260987304765e-07 1.412390303483569585e-08 0.000000000000000000e+00 1.960642062808399402e-09 0.000000000000000000e+00 3.720930541265218468e-07)
(9.601215415079987214e-07 1.403603060959591938e-08 0.000000000000000000e+00 1.971982316651920755e-09 0.000000000000000000e+00 3.719236285354362501e-07)
(9.620265610397814961e-07 1.401994478188820360e-08 0.000000000000000000e+00 1.982724036227480854e-09 0.000000000000000000e+00 3.720801240086226436e-07)
(9.619333166132003931e-07 1.387755458949804105e-08 0.000000000000000000e+00 1.983053790997041139e-09 0.000000000000000000e+00 3.716130589496729115e-07)
(9.620876140944439964e-07 1.373273763665772680e-08 0.000000000000000000e+00 1.981383093194254249e-09 0.000000000000000000e+00 3.707220441050854784e-07)
(9.621118355947455768e-07 1.363724852207315559e-08 0.000000000000000000e+00 1.986807639630732843e-09 0.000000000000000000e+00 3.697559506811108624e-07)
(9.616047697750439045e-07 1.348464086816894620e-08 0.000000000000000000e+00 1.986011878456848193e-09 0.000000000000000000e+00 3.684514980707871537e-07)
(9.614183597000170571e-07 1.333452030868339556e-08 0.000000000000000000e+00 1.968664334405399497e-09 0.000000000000000000e+00 3.662290040729305472e-07)
(9.599787575563943849e-07 1.325177553697920496e-08 0.000000000000000000e+00 1.957503048231764597e-09 0.000000000000000000e+00 3.637552025723943018e-07)
(9.563986098083686438e-07 1.305949040756883544e-08 0.000000000000000000e+00 1.939390063325230616e-09 0.000000000000000000e+00 3.607515780387322800e-07)
(9.530550119618057992e-07 1.279086715164902097e-08 0.000000000000000000e+00 1.908205175396990117e-09 0.000000000000000000e+00 3.571420527519023190e-07)
(9.514095067846888627e-07 1.257854327528565781e-08 0.000000000000000000e+00 1.885682792075270701e-09 0.000000000000000000e+00 3.537645877144079983e-07)
(9.506615495783691558e-07 1.242061751110171642e-08 0.000000000000000000e+00 1.863404144102546418e-09 0.000000000000000000e+00 3.507726426452000428e-07)
(9.493714912990443393e-07 1.229884713926903379e-08 0.000000000000000000e+00 1.846195681053268391e-09 0.000000000000000000e+00 3.479673842427450826e-07)
(9.461935829707014000e-07 1.220338355585008681e-08 0.000000000000000000e+00 1.826349949670829669e-09 0.000000000000000000e+00 3.445709707800800147e-07)
(9.420100137920250892e-07 1.201746164840504533e-08 0.000000000000000000e+00 1.805986116873399114e-09 0.000000000000000000e+00 3.407601512090941136e-07)
(9.379563431180550962e-07 1.177236411107285447e-08 0.000000000000000000e+00 1.780873390539961458e-09 0.000000000000000000e+00 3.364974635344780917e-07)
(9.339994529815073650e-07 1.155022171893708952e-08 0.000000000000000000e+00 1.743427478102818241e-09 0.000000000000000000e+00 3.315479866029585779e-07)
(9.294252229491517265e-07 1.132882332029684170e-08 0.000000000000000000e+00 1.712628405968013217e-09 0.000000000000000000e+00 3.264757961261300276e-07)
(9.254792322307475702e-07 1.109507300849004734e-08 0.000000000000000000e+00 1.677513200973211819e-09 0.000000000000000000e+00 3.214059665340981025e-07)
(9.232078118520556078e-07 1.091441778908098116e-08 0.000000000000000000e+00 1.648176529084667618e-09 0.000000000000000000e+00 3.165383362320607693e-07)
(9.209465222923455149e-07 1.080159761020780629e-08 0.000000000000000000e+00 1.609039087285357774e-09 0.000000000000000000e+00 3.122851865320224065e-07)
(9.172430311674115190e-07 1.063093507178819973e-08 0.000000000000000000e+00 1.566108383028331697e-09 0.000000000000000000e+00 3.079368800586604210e-07)
(9.131214430842580268e-07 1.043391210040587215e-08 0.000000000000000000e+00 1.531436722706650052e-09 0.000000000000000000e+00 3.037061115464924083e-07)
(9.090921168196870138e-07 1.024093067524248254e-08 0.000000000000000000e+00 1.495524115755820620e-09 0.000000000000000000e+00 2.998913446401505222e-07)
(9.051165824989210772e-07 1.010839779035232914e-08 0.000000000000000000e+00 1.466109652713233378e-09 0.000000000000000000e+00 2.962848118419367058e-07)
(9.009398336541010723e-07 9.973653044960488068e-09 0.000000000000000000e+00 1.435688322145860772e-09 0.000000000000000000e+00 2.923235409524889097e-07)
(8.962474229752454266e-07 9.826609663702329293e-09 0.000000000000000000e+00 1.399134543478805121e-09 0.000000000000000000e+00 2.877855767338119102e-07)
(8.918581682666921006e-07 9.684422176525575214e-09 0.000000000000000000e+00 1.365858053273997279e-09 0.000000000000000000e+00 2.837029537426213640e-07)
(8.876025212751798486e-07 9.556344123853999761e-09 0.000000000000000000e+00 1.335298196479590218e-09 0.000000000000000000e+00 2.798273567392313049e-07)
(8.834954526335246440e-07 9.445128769537241804e-09 0.000000000000000000e+00 1.305302179308298154e-09 0.000000000000000000e+00 2.760999472281039713e-07)
(8.791945579732860006e-07 9.282900308428580798e-09 0.000000000000000000e+00 1.272650943209776754e-09 0.000000000000000000e+00 2.725841831693624408e-07)
(8.761128688164252554e-07 9.163106836596235527e-09 0.000000000000000000e+00 1.240996837297857304e-09 0.000000000000000000e+00 2.691695489224795705e-07)
(8.735214016483158441e-07 9.077929234754631249e-09 0.000000000000000000e+00 1.209578282108490892e-09 0.000000000000000000e+00 2.659502516604497801e-07)
(8.715450472746893686e-07 9.005581756411119149e-09 0.000000000000000000e+00 1.184093501316774622e-09 0.000000000000000000e+00 2.632541212229027534e-07)
(8.695121339709562665e-07 8.965512295004690091e-09 0.000000000000000000e+00 1.160132333267680274e-09 0.000000000000000000e+00 2.606185999444913543e-07)
(8.676752186998186896e-07 8.900237345477961428e-09 0.000000000000000000e+00 1.138486408865510414e-09 0.000000000000000000e+00 2.580337275145797238e-07)
(8.656953491523547501e-07 8.878747220585278048e-09 0.000000000000000000e+00 1.115099786474977576e-09 0.000000000000000000e+00 2.557277096283342038e-07)
(8.635351999760209941e-07 8.835076793935648455e-09 0.000000000000000000e+00 1.090401504863443092e-09 0.000000000000000000e+00 2.536207432906163284e-07)
(8.613862334453099494e-07 8.788296832279943531e-09 0.000000000000000000e+00 1.068079472896471156e-09 0.000000000000000000e+00 2.517882580886392854e-07)
(8.596838559486640769e-07 8.725487665595980391e-09 0.000000000000000000e+00 1.045802304823286178e-09 0.000000000000000000e+00 2.501711984566238954e-07)
(8.591377529972236418e-07 8.705551256563322862e-09 0.000000000000000000e+00 1.026504845127294716e-09 0.000000000000000000e+00 2.488187264365215113e-07)
(8.592261864952879910e-07 8.732693501608845861e-09 0.000000000000000000e+00 1.011906799035500671e-09 0.000000000000000000e+00 2.477288462379741231e-07)
(8.593461168197421495e-07 8.747300671126801212e-09 0.000000000000000000e+00 1.000724888155888817e-09 0.000000000000000000e+00 2.468546363347716661e-07)
(8.600365509111508491e-07 8.786467824224072207e-09 0.000000000000000000e+00 9.897522893356048981e-10 0.000000000000000000e+00 2.461709056806320417e-07)
(8.608656058835862808e-07 8.829141057380415099e-09 0.000000000000000000e+00 9.797297941119675393e-10 0.000000000000000000e+00 2.458264935654831218e-07)
(8.619223812970033541e-07 8.891010295821086835e-09 0.000000000000000000e+00 9.733836607718302060e-10 0.000000000000000000e+00 2.459131163130007336e-07)
(8.629078747589541266e-07 8.945731242766430311e-09 0.000000000000000000e+00 9.664188070740801228e-10 0.000000000000000000e+00 2.462583916881347771e-07)
(8.641477034299080233e-07 9.025722954985087757e-09 0.000000000000000000e+00 9.578947397643253962e-10 0.000000000000000000e+00 2.467835354019611813e-07)
(8.652927633436274017e-07 9.121067605596033469e-09 0.000000000000000000e+00 9.561633301212382921e-10 0.000000000000000000e+00 2.474603407594103894e-07)
(8.662578414256210652e-07 9.222998241694654552e-09 0.000000000000000000e+00 9.574969101823318444e-10 0.000000000000000000e+00 2.482801248606966179e-07)
(8.673662287208646825e-07 9.311205769446883889e-09 0.000000000000000000e+00 9.586249477802699981e-10 0.000000000000000000e+00 2.493195776532672380e-07)
(8.689910514470576389e-07 9.418288818329190566e-09 0.000000000000000000e+00 9.615440948554296254e-10 0.000000000000000000e+00 2.505566997856701002e-07)
(8.704608135551245469e-07 9.525867357088402136e-09 0.000000000000000000e+00 9.679563265758050220e-10 0.000000000000000000e+00 2.521971824847835216e-07)
(8.721658680601342044e-07 9.644015695070915342e-09 0.000000000000000000e+00 9.703977830119154825e-10 0.000000000000000000e+00 2.540589839764530204e-07)
(8.739580338693519845e-07 9.774612643088081733e-09 0.000000000000000000e+00 9.762584639872645618e-10 0.000000000000000000e+00 2.560217280814908235e-07)
(8.755463362894152482e-07 9.903847330339788606e-09 0.000000000000000000e+00 9.844188668407374335e-10 0.000000000000000000e+00 2.581649274701458582e-07)
(8.773950601029671601e-07 1.003761363745692143e-08 0.000000000000000000e+00 9.967179813633255273e-10 0.000000000000000000e+00 2.604038591098167612e-07)
(8.794189941748579607e-07 1.019005040756846118e-08 0.000000000000000000e+00 1.008215650337566946e-09 0.000000000000000000e+00 2.625774680313919803e-07)
(8.811448219467063639e-07 1.033580993967430657e-08 0.000000000000000000e+00 1.016354003218911464e-09 0.000000000000000000e+00 2.647283809804572216e-07)
(8.828282522391267548e-07 1.046987271757833371e-08 0.000000000000000000e+00 1.025500537615142084e-09 0.000000000000000000e+00 2.669431312066272377e-07)
(8.847240190796641546e-07 1.060696143765940369e-08 0.000000000000000000e+00 1.037078694048799555e-09 0.000000000000000000e+00 2.692735232545481144e-07)
(8.874770400271316427e-07 1.075558733576252807e-08 0.000000000000000000e+00 1.049932746414931976e-09 0.000000000000000000e+00 2.720054979381209471e-07)
(8.902146016056366996e-07 1.093918972965114317e-08 0.000000000000000000e+00 1.062729851017965544e-09 0.000000000000000000e+00 2.749879979062819385e-07)
(8.923355428563860805e-07 1.111676234210554944e-08 0.000000000000000000e+00 1.079023804538590543e-09 0.000000000000000000e+00 2.779647444982765932e-07)
(8.941974878307817099e-07 1.127296051655652462e-08 0.000000000000000000e+00 1.094042069768849544e-09 0.000000000000000000e+00 2.810034264910365686e-07)
(8.957658733273420679e-07 1.143425238304077522e-08 0.000000000000000000e+00 1.110665070385249456e-09 0.000000000000000000e+00 2.840910296424766331e-07)
(8.971929236462737684e-07 1.157733432429181377e-08 0.000000000000000000e+00 1.126964758821171169e-09 0.000000000000000000e+00 2.871557897358146720e-07)
(8.987609152502694033e-07 1.173487320416417921e-08 0.000000000000000000e+00 1.144621912907666155e-09 0.000000000000000000e+00 2.903393924570200770e-07)
(9.002162506024873879e-07 1.188824237155737957e-08 0.000000000000000000e+00 1.162545447497737991e-09 0.000000000000000000e+00 2.935139165205814764e-07)
(9.022316790524688759e-07 1.204974406189104954e-08 0.000000000000000000e+00 1.184364958927141164e-09 0.000000000000000000e+00 2.968090507478016251e-07)
(9.044259243300253086e-07 1.223330639014462226e-08 0.000000000000000000e+00 1.208432167057443609e-09 0.000000000000000000e+00 3.002490764381800319e-07)
(9.063761281355168314e-07 1.239424466605264854e-08 0.000000000000000000e+00 1.229602625931076754e-09 0.000000000000000000e+00 3.037048073454335025e-07)
(9.081557828557681327e-07 1.253013215172068156e-08 0.000000000000000000e+00 1.252950703946056961e-09 0.000000000000000000e+00 3.072272452774427740e-07)
(2.770814086760926403e-06 3.864630010387915825e-08 0.000000000000000000e+00 3.897490103419090658e-09 0.000000000000000000e+00 9.468662601960097702e-07)
(2.779935423380969284e-06 3.921259997500524889e-08 0.000000000000000000e+00 3.989858364555209029e-09 0.000000000000000000e+00 9.602508152175512317e-07)
(2.784280629015774824e-06 3.966094824729663922e-08 0.000000000000000000e+00 4.082742005465167132e-09 0.000000000000000000e+00 9.726078330629762108e-07)
(2.793585549900065909e-06 4.025720889387972028e-08 0.000000000000000000e+00 4.198179162191426078e-09 0.000000000000000000e+00 9.863301338763812867e-07)
(2.796943925468923634e-06 4.074108663207983611e-08 0.000000000000000000e+00 4.308694756261648257e-09 0.000000000000000000e+00 9.967329208848234380e-07)
(2.803552320493697368e-06 4.119495914972435232e-08 0.000000000000000000e+00 4.416533722416059610e-09 0.000000000000000000e+00 1.007960415370683221e-06)
(2.809381392221395772e-06 4.154904831663895394e-08 0.000000000000000000e+00 4.510482899402034872e-09 0.000000000000000000e+00 1.019098974368790519e-06)
(2.810666501443501760e-06 4.182167918276382501e-08 0.000000000000000000e+00 4.593301210739572324e-09 0.000000000000000000e+00 1.029463475984003059e-06)
(2.818392940877866850e-06 4.215724907131650300e-08 0.000000000000000000e+00 4.698992804445468569e-09 0.000000000000000000e+00 1.041247079939625800e-06)
(2.829461970205466137e-06 4.255288931866647871e-08 0.000000000000000000e+00 4.806049189885123094e-09 0.000000000000000000e+00 1.053420344350302171e-06)
(2.841689529641373205e-06 4.301469218592939592e-08 0.000000000000000000e+00 4.929276982530162636e-09 0.000000000000000000e+00 1.064660110898958483e-06)
(2.852762454442003382e-06 4.342528687186727689e-08 0.000000000000000000e+00 5.036564749382938247e-09 0.000000000000000000e+00 1.075255255127750886e-06)
(2.859882048953110722e-06 4.374318462550192464e-08 0.000000000000000000e+00 5.125411365640578351e-09 0.000000000000000000e+00 1.084557724062654307e-06)
(2.866293621065256297e-06 4.383760170161615768e-08 0.000000000000000000e+00 5.209668063956898597e-09 0.000000000000000000e+00 1.093536528362045958e-06)
(2.869917175293535862e-06 4.386497995831420287e-08 0.000000000000000000e+00 5.282168997018457117e-09 0.000000000000000000e+00 1.100841544417267533e-06)
(2.880241519228976636e-06 4.400369709108432564e-08 0.000000000000000000e+00 5.372950150635160753e-09 0.000000000000000000e+00 1.109911927018200957e-06)
(2.890545626623764189e-06 4.419884252480125242e-08 0.000000000000000000e+00 5.472161514568002526e-09 0.000000000000000000e+00 1.119539279747040824e-06)
(2.901476100062435010e-06 4.422210379854318327e-08 0.000000000000000000e+00 5.566813186763787866e-09 0.000000000000000000e+00 1.126890908969823091e-06)
(2.918326668123399827e-06 4.474838346045295770e-08 0.000000000000000000e+00 5.760609491950432355e-09 0.000000000000000000e+00 1.134696166040543422e-06)
(2.937139661206140280e-06 4.514466347135488282e-08 0.000000000000000000e+00 5.960466018200123899e-09 0.000000000000000000e+00 1.142722750913896062e-06)
(2.947337850595653907e-06 4.513348304251592179e-08 0.000000000000000000e+00 6.026190789934223688e-09 0.000000000000000000e+00 1.148464778213521358e-06)
(2.968471086209959960e-06 4.561859685454166602e-08 0.000000000000000000e+00 6.245706284399486964e-09 0.000000000000000000e+00 1.156801595138633933e-06)
(2.988958820668843691e-06 4.608274281594686482e-08 0.000000000000000000e+00 6.461640236481740154e-09 0.000000000000000000e+00 1.162706662945276198e-06)
(3.000755887959100376e-06 4.594191839149245651e-08 0.000000000000000000e+00 6.521361679160672184e-09 0.000000000000000000e+00 1.165458956797829101e-06)
(3.025411246011611343e-06 4.638372743406124234e-08 0.000000000000000000e+00 6.700568749751427849e-09 0.000000000000000000e+00 1.170718339511331133e-06)
(3.046989628011178158e-06 4.690834543224467800e-08 0.000000000000000000e+00 6.876528853347658336e-09 0.000000000000000000e+00 1.174568864157288801e-06)
(3.055070085965637879e-06 4.661962371959670021e-08 0.000000000000000000e+00 6.914710061786103239e-09 0.000000000000000000e+00 1.173998990038919516e-06)
(3.072660641559943077e-06 4.705581154664868431e-08 0.000000000000000000e+00 7.081192862569484319e-09 0.000000000000000000e+00 1.177329283928843374e-06)
(3.072541169558070160e-06 4.659629487700449033e-08 0.000000000000000000e+00 7.083807488988961902e-09 0.000000000000000000e+00 1.175815304868918229e-06)
(3.084757069333427430e-06 4.660048160899271227e-08 0.000000000000000000e+00 7.206893121469224100e-09 0.000000000000000000e+00 1.175768499565566447e-06)
(3.084950573573969285e-06 4.627906036433412903e-08 0.000000000000000000e+00 7.223383885040278492e-09 0.000000000000000000e+00 1.172655225224683652e-06)
(3.095156027663091561e-06 4.625074632172986121e-08 0.000000000000000000e+00 7.349721600144228269e-09 0.000000000000000000e+00 1.171263092475696946e-06)
(3.094678803239870063e-06 4.574735202556874731e-08 0.000000000000000000e+00 7.288679008204141297e-09 0.000000000000000000e+00 1.164176654981314376e-06)
(3.090279212056350411e-06 4.544998134506306170e-08 0.000000000000000000e+00 7.244365963990642776e-09 0.000000000000000000e+00 1.156268091095546402e-06)
(3.090886142697110067e-06 4.527835319728331747e-08 0.000000000000000000e+00 7.306843492839983604e-09 0.000000000000000000e+00 1.149486044282582421e-06)
(3.080578218644216164e-06 4.437356196923186916e-08 0.000000000000000000e+00 7.189820135124080582e-09 0.000000000000000000e+00 1.138012270471126276e-06)
(3.075518406517099733e-06 4.365959828135788797e-08 0.000000000000000000e+00 7.104254239508232457e-09 0.000000000000000000e+00 1.127290757584326974e-06)
(3.084952866936217066e-06 4.356454516778478329e-08 0.000000000000000000e+00 7.140870714316432782e-09 0.000000000000000000e+00 1.120418580622787282e-06)
(3.080983118031400973e-06 4.314651864133400137e-08 0.000000000000000000e+00 7.072667755907435090e-09 0.000000000000000000e+00 1.111385461170904726e-06)
(3.071029941724884856e-06 4.282157040675618619e-08 0.000000000000000000e+00 6.998429662026730155e-09 0.000000000000000000e+00 1.100574808391144977e-06)
(3.057782596757913801e-06 4.217146704408837679e-08 0.000000000000000000e+00 6.915338419307134721e-09 0.000000000000000000e+00 1.088343320683349167e-06)
(3.045020125089123234e-06 4.135454681438369464e-08 0.000000000000000000e+00 6.822712165374047696e-09 0.000000000000000000e+00 1.074808378811468753e-06)
(3.044098198573513967e-06 4.100322630834034727e-08 0.000000000000000000e+00 6.794984025827210475e-09 0.000000000000000000e+00 1.061559733186257961e-06)
(3.029701602578237278e-06 4.024546108887074192e-08 0.000000000000000000e+00 6.676659644740965858e-09 0.000000000000000000e+00 1.045408215176692580e-06)
(3.017244296633352214e-06 3.943278657515935056e-08 0.000000000000000000e+00 6.538867341064703791e-09 0.000000000000000000e+00 1.029230359849025107e-06)
(3.010084029712892755e-06 3.879300131787329923e-08 0.000000000000000000e+00 6.418158568932594280e-09 0.000000000000000000e+00 1.013713362689230189e-06)
(3.003041402980906855e-06 3.840251938123882786e-08 0.000000000000000000e+00 6.273846651797523410e-09 0.000000000000000000e+00 1.000201389440389825e-06)
(2.991460724908205991e-06 3.781462831596723654e-08 0.000000000000000000e+00 6.106996884254723279e-09 0.000000000000000000e+00 9.862680097913808516e-07)
(2.978523438104431588e-06 3.714743826373216757e-08 0.000000000000000000e+00 5.975479341103677813e-09 0.000000000000000000e+00 9.728256635387636181e-07)
(2.965804825168935296e-06 3.649226924945147083e-08 0.000000000000000000e+00 5.839035559553956712e-09 0.000000000000000000e+00 9.607119640450239920e-07)
(2.953152636290776330e-06 3.602358961339804328e-08 0.000000000000000000e+00 5.722056822188077479e-09 0.000000000000000000e+00 9.492007239295067768e-07)
(2.939906228282263719e-06 3.556460910466756245e-08 0.000000000000000000e+00 5.608521454011148129e-09 0.000000000000000000e+00 9.366400065195050233e-07)
(2.924926393318215950e-06 3.504946537547144572e-08 0.000000000000000000e+00 5.468451649996996280e-09 0.000000000000000000e+00 9.221963742039150440e-07)
(2.910938524475600038e-06 3.455918228178379100e-08 0.000000000000000000e+00 5.341015306063056438e-09 0.000000000000000000e+00 9.092204081872415390e-07)
(2.897368372563615757e-06 3.410690889755138130e-08 0.000000000000000000e+00 5.221409578415054381e-09 0.000000000000000000e+00 8.968759926743736332e-07)
(2.884349285558271809e-06 3.372082648654213600e-08 0.000000000000000000e+00 5.102727038826304603e-09 0.000000000000000000e+00 8.850280667619924840e-07)
(2.859415255734394146e-06 3.281705726801495268e-08 0.000000000000000000e+00 4.894194352136489827e-09 0.000000000000000000e+00 8.716980480146519397e-07)
(2.849626753199814815e-06 3.240816514487534177e-08 0.000000000000000000e+00 4.773714953723265230e-09 0.000000000000000000e+00 8.608620602060718950e-07)
(2.841430347079785516e-06 3.211827633266889995e-08 0.000000000000000000e+00 4.658271186839941769e-09 0.000000000000000000e+00 8.506903844170410319e-07)
(2.835166154434015256e-06 3.187543557400220215e-08 0.000000000000000000e+00 4.562251988179328335e-09 0.000000000000000000e+00 8.421513142911184038e-07)
(2.828724569745781373e-06 3.173802238351005182e-08 0.000000000000000000e+00 4.472062007852615164e-09 0.000000000000000000e+00 8.338051893435561844e-07)
(2.822849281579193335e-06 3.152140122489481150e-08 0.000000000000000000e+00 4.387672619461734235e-09 0.000000000000000000e+00 8.256285907330261599e-07)
(2.805216979197470613e-06 3.109729695661390952e-08 0.000000000000000000e+00 4.223488222874309312e-09 0.000000000000000000e+00 8.162452418375497932e-07)
(2.798372793054291481e-06 3.095147010295723982e-08 0.000000000000000000e+00 4.134434668057555012e-09 0.000000000000000000e+00 8.096352285639232391e-07)
(2.791620955506792071e-06 3.080191589011245681e-08 0.000000000000000000e+00 4.053937132374429804e-09 0.000000000000000000e+00 8.038975304691014365e-07)
(2.775004190826007749e-06 3.025455795781405345e-08 0.000000000000000000e+00 3.899076941562847503e-09 0.000000000000000000e+00 7.967576133607045526e-07)
(2.773272802707083203e-06 3.019280551781539944e-08 0.000000000000000000e+00 3.829681505013837427e-09 0.000000000000000000e+00 7.925324213128483477e-07)
(2.773546027865333509e-06 3.028609517644703253e-08 0.000000000000000000e+00 3.777011591330611231e-09 0.000000000000000000e+00 7.891375514389816486e-07)
(2.762668744297814612e-06 2.999281874994727246e-08 0.000000000000000000e+00 3.666324368863517158e-09 0.000000000000000000e+00 7.843585328013825159e-07)
(2.764817574232301531e-06 3.012425991311145534e-08 0.000000000000000000e+00 3.627613367760856789e-09 0.000000000000000000e+00 7.822563730936499115e-07)
(2.756147964364852765e-06 2.991545032076660401e-08 0.000000000000000000e+00 3.524279795198458590e-09 0.000000000000000000e+00 7.791374267258155518e-07)
(2.759454696807133452e-06 3.012202956786571354e-08 0.000000000000000000e+00 3.501711073314711556e-09 0.000000000000000000e+00 7.794598540913891038e-07)
(2.751258558056123176e-06 2.995297718550383475e-08 0.000000000000000000e+00 3.410388617003407021e-09 0.000000000000000000e+00 7.784878058213378421e-07)
(2.755102517685336706e-06 3.021560614673976033e-08 0.000000000000000000e+00 3.381812662876064585e-09 0.000000000000000000e+00 7.801770579258320587e-07)
(2.747374589140819427e-06 3.017021069057363916e-08 0.000000000000000000e+00 3.308565055271861053e-09 0.000000000000000000e+00 7.802278372865866440e-07)
(2.739091791451606346e-06 3.013872549897958960e-08 0.000000000000000000e+00 3.245849888915615890e-09 0.000000000000000000e+00 7.807047568886329489e-07)
(2.742521344111416095e-06 3.042524502640300774e-08 0.000000000000000000e+00 3.249998377283853989e-09 0.000000000000000000e+00 7.839870460501213209e-07)
(2.736300413393479918e-06 3.040036129326570949e-08 0.000000000000000000e+00 3.192615649844023455e-09 0.000000000000000000e+00 7.857223869453610286e-07)
(2.729618958293124684e-06 3.037166124951793003e-08 0.000000000000000000e+00 3.145922134161701178e-09 0.000000000000000000e+00 7.886892904999526958e-07)
(2.734910560142469714e-06 3.074817809052930209e-08 0.000000000000000000e+00 3.154353720603891475e-09 0.000000000000000000e+00 7.945236204906656451e-07)
(2.729239162082470969e-06 3.078042945191262066e-08 0.000000000000000000e+00 3.104842210062248985e-09 0.000000000000000000e+00 7.984431714812881008e-07)
(2.722945635130073194e-06 3.080068354963580217e-08 0.000000000000000000e+00 3.061519657356920259e-09 0.000000000000000000e+00 8.028882568990634663e-07)
(2.724304547696335184e-06 3.116631064398720747e-08 0.000000000000000000e+00 3.094762341081705176e-09 0.000000000000000000e+00 8.085463464900824145e-07)
(2.726192485937682833e-06 3.158862891944309370e-08 0.000000000000000000e+00 3.125435948637261988e-09 0.000000000000000000e+00 8.139826453821625249e-07)
(2.727136762655301382e-06 3.198882000137444824e-08 0.000000000000000000e+00 3.145574889910220704e-09 0.000000000000000000e+00 8.193254548888644555e-07)
(2.732347215167371951e-06 3.240372794158488515e-08 0.000000000000000000e+00 3.173900241162757245e-09 0.000000000000000000e+00 8.261807370341823624e-07)
(2.733788312521664234e-06 3.277502424693345216e-08 0.000000000000000000e+00 3.204517915754261675e-09 0.000000000000000000e+00 8.320454115018333705e-07)
(2.737855080919330782e-06 3.318026053540122783e-08 0.000000000000000000e+00 3.238994941254753045e-09 0.000000000000000000e+00 8.391255908417687575e-07)
(2.741850929715720116e-06 3.369197275105499471e-08 0.000000000000000000e+00 3.273156038898800957e-09 0.000000000000000000e+00 8.469513775405880895e-07)
(2.743925019950143450e-06 3.418351457230835985e-08 0.000000000000000000e+00 3.317938393229071455e-09 0.000000000000000000e+00 8.547305724877035599e-07)
(2.745180183015297201e-06 3.460741965673950936e-08 0.000000000000000000e+00 3.358656438211039453e-09 0.000000000000000000e+00 8.626700905933045890e-07)
(2.745518231622132120e-06 3.504550256140758930e-08 0.000000000000000000e+00 3.404131487092542172e-09 0.000000000000000000e+00 8.707297516020125858e-07)