/*--------------------------------*- C++ -*----------------------------------*\
| =========                 |                                                 |
| \\      /  F ield         | OpenFOAM: The Open Source CFD Toolbox           |
|  \\    /   O peration     | Version:  2.3.x                                 |
|   \\  /    A nd           | Web:      www.OpenFOAM.org                      |
|    \\/     M anipulation  |                                                 |
\*---------------------------------------------------------------------------*/
FoamFile
{
    version     2.0;
    format      ascii;
    class       volVectorField;
    location    "0";
    object      UDNS;
}
// * * * * * * * * * * * * * * * * * * * * * * * * * * * * * * * * * * * * * //

dimensions      [0 1 -1 0 0 0 0];

internalField   nonuniform List<vector> 
14751
(
(1.764255678202529456e-03 2.535928402555273558e-07 2.095651409471246705e-06)
(1.755651592827901786e-03 3.409763497964463571e-07 2.044181160434029956e-06)
(1.745718394893004850e-03 3.680102513794082207e-07 2.016390885700110582e-06)
(1.734459385045946560e-03 3.687840036122968900e-07 1.991205137949407033e-06)
(1.721917818724688848e-03 4.546489720314735619e-07 1.948111614710277384e-06)
(1.708221520321697188e-03 5.238102396017734424e-07 1.925364171164396356e-06)
(1.693527673143481287e-03 5.047896794269720067e-07 1.898242645154844077e-06)
(1.677998625494159278e-03 5.245217690576176155e-07 1.860696107685495921e-06)
(1.661724062890224118e-03 6.024154154803345517e-07 1.795339284173002011e-06)
(1.644773846910752447e-03 6.087918636469342469e-07 1.736020526581926569e-06)
(1.627187331537897170e-03 5.748122945391805234e-07 1.704190779928684841e-06)
(1.609111229928839081e-03 6.338446137632111174e-07 1.668852642110022135e-06)
(1.590614020015529342e-03 6.880889470120255992e-07 1.605288474773603046e-06)
(1.571841300092885257e-03 6.396850998592196756e-07 1.531552791672859507e-06)
(1.552972987007973735e-03 6.278782868863986556e-07 1.439334739068212460e-06)
(1.534098406336042086e-03 6.766181408033065216e-07 1.366525089420026084e-06)
(1.515298177920882013e-03 6.658898177921574548e-07 1.300067309753651323e-06)
(1.496605799438746566e-03 6.119226008787295003e-07 1.241637331383933458e-06)
(1.478149380836739531e-03 6.343833489365776328e-07 1.204160156054105435e-06)
(1.459998290461067636e-03 6.576510850751142278e-07 1.178917548231663482e-06)
(1.442310723472855008e-03 5.996556864952562787e-07 1.163947357985144989e-06)
(1.425084505627193833e-03 5.688593984459468190e-07 1.174498057342059626e-06)
(1.408257110258453841e-03 5.928082819678774806e-07 1.215469346975943342e-06)
(1.391865979367811401e-03 5.722487733119711299e-07 1.265742822883336273e-06)
(1.376057059700071033e-03 5.220832787420243204e-07 1.295745343006597950e-06)
(1.360717301715073935e-03 5.238563431136778593e-07 1.300802469185591123e-06)
(1.345852338969160712e-03 5.276674410030438073e-07 1.267086814043680784e-06)
(1.331522884512498098e-03 4.884334076903085695e-07 1.213339907556427290e-06)
(1.317732293676483150e-03 4.572536998928765602e-07 1.188226854233808532e-06)
(1.304623780814745306e-03 4.497053074759429867e-07 1.173328070739701616e-06)
(1.292236148706464669e-03 4.254937002252368689e-07 1.163649134242013727e-06)
(1.280539654341001331e-03 3.900472138264168307e-07 1.154091181672174830e-06)
(1.269631639871546605e-03 3.629185637728231716e-07 1.156716312969067062e-06)
(1.259592604501770388e-03 3.412104758842879431e-07 1.178002315112692672e-06)
(1.250290093050340692e-03 3.112085960833003248e-07 1.215195006541440737e-06)
(1.241935746191661413e-03 2.746206424845858083e-07 1.223097787339846036e-06)
(1.234643801527490758e-03 2.381308020806843084e-07 1.279505393086981354e-06)
(1.228305805514912866e-03 2.038494463497895788e-07 1.334380659214348592e-06)
(1.222764096884767018e-03 1.866812242071247229e-07 1.339599732326160133e-06)
(1.217955049503119868e-03 1.604487184103043932e-07 1.272081209619030085e-06)
(1.213904539416828287e-03 1.196833009559460352e-07 1.172521601627609384e-06)
(1.210716220710764037e-03 9.694353731209676619e-08 1.152641321506752129e-06)
(1.208591771031805205e-03 7.221170769998599698e-08 1.179216377634650110e-06)
(1.207554949125363812e-03 1.892596710955873832e-08 1.221745806050259783e-06)
(1.207570913203511332e-03 -2.987607715034588351e-08 1.260384412004003955e-06)
(1.208754419130817978e-03 -4.745892617216566484e-08 1.297639342726627915e-06)
(1.211021496230971738e-03 -8.081494812144015524e-08 1.343121348006503776e-06)
(1.214157528833666958e-03 -1.386103803982506956e-07 1.360960661958010457e-06)
(1.218247527528756565e-03 -1.566520783883534200e-07 1.386860214607819091e-06)
(1.223257877917875713e-03 -1.590490032154546303e-07 1.429062379421406528e-06)
(1.229272840791001929e-03 -2.244822912895829968e-07 1.474116661703734857e-06)
(1.236235530379487316e-03 -2.761258002282260226e-07 1.475441914404733614e-06)
(1.244221476155424767e-03 -2.785046942661239280e-07 1.444537145457591189e-06)
(1.253214170662421151e-03 -3.074588898889891574e-07 1.411715975119883116e-06)
(1.263063519712680910e-03 -3.724602231732583159e-07 1.364184272144345547e-06)
(1.273721790337801942e-03 -3.845287149305720050e-07 1.306945875645514074e-06)
(1.285156998169945108e-03 -3.752442778322896710e-07 1.241853686707803862e-06)
(1.297468056787209455e-03 -4.392946795106136332e-07 1.157564562637541505e-06)
(1.310614306506990238e-03 -4.931664196259228793e-07 1.128668990969493844e-06)
(1.324479220801118642e-03 -4.770014301823134085e-07 1.161837436218451805e-06)
(1.338994362116269947e-03 -4.894123214364035919e-07 1.226613154170352199e-06)
(1.354109027640862514e-03 -5.512503201716497567e-07 1.265916133716716714e-06)
(1.369754863483084017e-03 -5.577589850444537287e-07 1.277626216742505135e-06)
(1.385899934085453198e-03 -5.323321942912530936e-07 1.309204071321910154e-06)
(1.402478469975521579e-03 -5.773096503843535085e-07 1.377808769670035363e-06)
(1.419502315112723461e-03 -6.275509453377012013e-07 1.466980771704369427e-06)
(1.436922055335096296e-03 -5.981212433458705723e-07 1.537472832091636489e-06)
(1.454604220257422510e-03 -5.891819027331941575e-07 1.601896093247795657e-06)
(1.472399483389344715e-03 -6.346887762279531704e-07 1.649339235991660807e-06)
(1.490286804662571771e-03 -6.333599756163749869e-07 1.673190718113828231e-06)
(1.508261417133339695e-03 -5.960621302167931619e-07 1.701567357154309713e-06)
(1.526232245444999157e-03 -6.173231322348064838e-07 1.729333653537201111e-06)
(1.544119027331389369e-03 -6.498603842444559192e-07 1.750160707395724548e-06)
(1.561859131832999239e-03 -6.066595841372701400e-07 1.773096670686188384e-06)
(1.579376419882304880e-03 -5.811008604716731339e-07 1.819349965407523196e-06)
(1.596617986334611470e-03 -6.046640533226920782e-07 1.869850325562942536e-06)
(1.613489481415267095e-03 -5.923110028073071249e-07 1.922848451673378205e-06)
(1.629971241961625239e-03 -5.476833480708100617e-07 1.968520371114937471e-06)
(1.646013451957746392e-03 -5.453768800586910075e-07 1.992355991715746543e-06)
(1.661551126741908462e-03 -5.529065982047879365e-07 2.010325001340024013e-06)
(1.676482256163131911e-03 -5.079522502680184314e-07 2.029531513933810280e-06)
(1.690716816071366176e-03 -4.696107420847733066e-07 2.041029685021560405e-06)
(1.704209037344091076e-03 -4.632283833493982421e-07 2.053341299758354834e-06)
(1.716853261775368698e-03 -4.350205692757636327e-07 2.085199622579910588e-06)
(1.728616595119857133e-03 -3.900070234984828437e-07 2.119451151835011997e-06)
(1.739449389381025370e-03 -3.633858357179072273e-07 2.148430428571084746e-06)
(1.749358601073867014e-03 -3.373771886129822172e-07 2.165256395383201676e-06)
(1.758265038689527018e-03 -2.964713078698023942e-07 2.186803464078090336e-06)
(1.766073579779672571e-03 -2.572303330044158720e-07 2.193668518234016780e-06)
(1.772671984280180333e-03 -2.133593141624968114e-07 2.204352132534941984e-06)
(1.778012158454732880e-03 -1.654674951119453608e-07 2.236185349249708256e-06)
(1.782052539664335036e-03 -1.297351050496907912e-07 2.257851742750838464e-06)
(1.784779228188958840e-03 -8.297998717307926978e-08 2.261139392414437976e-06)
(1.786128906511685920e-03 -1.671369537175831564e-08 2.248319859388635097e-06)
(1.786066882903472987e-03 2.045258714556272972e-08 2.232114857032790959e-06)
(1.784631820782035718e-03 4.513566079798371653e-08 2.224410154171766450e-06)
(1.781732936349897638e-03 1.231237974152848116e-07 2.211986583006982823e-06)
(1.777338356912408750e-03 1.914859604984153475e-07 2.186170035448041640e-06)
(1.771493165966368756e-03 2.063335695493072701e-07 2.143207221932768262e-06)
(5.372151663955382350e-03 7.717864799515519858e-07 6.381214895637285062e-06)
(5.354733279040209751e-03 1.039757957617846625e-06 6.234733192809039195e-06)
(5.324431897347103870e-03 1.122979472326194458e-06 6.149980605130743176e-06)
(5.298773708161858692e-03 1.126619287624447850e-06 6.083132741263118411e-06)
(5.260441804049380277e-03 1.388168009347876643e-06 5.951436491784241353e-06)
(5.227126967688597997e-03 1.604380817052244380e-06 5.891576486551276244e-06)
(5.190629248465308647e-03 1.548728205112635502e-06 5.818055871811198316e-06)
(5.143017246036165127e-03 1.605618313524631001e-06 5.702882847891171193e-06)
(5.101442088472885571e-03 1.847332259551418767e-06 5.511471127904607958e-06)
(5.057611924723363038e-03 1.874915935969023831e-06 5.338085329436432258e-06)
(5.011683147712598513e-03 1.772628412512437696e-06 5.248809008381585063e-06)
(4.964028310823157680e-03 1.952369413896342170e-06 5.148233252105520004e-06)
(4.914941351566538830e-03 2.128354695116034522e-06 4.960133612481783565e-06)
(4.864775138043028399e-03 1.982556083335704480e-06 4.739791394909697121e-06)
(4.806377446818384941e-03 1.940626336831019714e-06 4.454409824907914425e-06)
(4.755639561202229526e-03 2.095205679986453539e-06 4.235977671062310046e-06)
(4.704935509110347129e-03 2.069813720911015988e-06 4.036518363451189921e-06)
(4.654404570239334057e-03 1.904369186264312777e-06 3.861366863683662065e-06)
(4.603804151621131852e-03 1.982651641300680503e-06 3.751827749278068198e-06)
(4.554054123970125920e-03 2.068356210009511482e-06 3.679798041011323874e-06)
(4.498925034550650508e-03 1.887064064972041653e-06 3.633128667883982123e-06)
(4.451872390449568458e-03 1.799582253670620540e-06 3.672188840824097343e-06)
(4.405944033345587756e-03 1.883755476636262062e-06 3.805831723322082197e-06)
(4.354794593867212724e-03 1.821022950281154420e-06 3.962327834503913575e-06)
(4.311902619101335571e-03 1.672558407430103724e-06 4.062475385674372514e-06)
(4.270375288202215430e-03 1.682595057443770681e-06 4.084884923314573741e-06)
(4.223797116346471141e-03 1.694181654975464912e-06 3.979897245939940459e-06)
(4.185351284503755105e-03 1.580262431718177340e-06 3.818847698455066533e-06)
(4.142176675655440468e-03 1.477975534681662737e-06 3.740575847940084993e-06)
(4.107312097378326872e-03 1.460317571910170908e-06 3.700100278651736691e-06)
(4.068535197137862318e-03 1.382431233476424055e-06 3.668997005787561050e-06)
(4.038028855524435079e-03 1.275020076460771579e-06 3.644912953839042367e-06)
(4.003830682584359583e-03 1.185064818586231879e-06 3.652563395131175617e-06)
(3.972319413623684979e-03 1.112783049677049513e-06 3.719070296067505910e-06)
(3.949260506541769911e-03 1.020558648720428991e-06 3.841774418641762515e-06)
(3.923035316956950333e-03 8.998275971379101951e-07 3.867937484642771670e-06)
(3.900181651123722174e-03 7.810368533427822468e-07 4.044027488764181613e-06)
(3.886321073226791691e-03 6.718582149119971073e-07 4.222396893264455614e-06)
(3.868939238433915032e-03 6.131022979154121950e-07 4.238620276771804379e-06)
(3.853902521484107828e-03 5.276114527658023525e-07 4.026990233347930835e-06)
(3.841223161875086198e-03 3.921388143577532611e-07 3.713789511066591279e-06)
(3.831286236013682275e-03 3.158736362768583732e-07 3.650022440809714661e-06)
(3.830686241298478841e-03 2.312404868402734795e-07 3.738961652632645019e-06)
(3.827516153071093986e-03 6.144688173415848751e-08 3.872055394918889643e-06)
(3.827678447310474841e-03 -9.922548779087176095e-08 3.994989692432020852e-06)
(3.831523120064746213e-03 -1.629036668933734516e-07 4.113047350068618427e-06)
(3.838730965637593157e-03 -2.722954953992794064e-07 4.257855796794300575e-06)
(3.848779577593772813e-03 -4.647476942745552763e-07 4.317231074419445420e-06)
(3.861775069041118325e-03 -5.230114424395039153e-07 4.398564480913149394e-06)
(3.877672764045153077e-03 -5.420136539327195784e-07 4.530789393258673542e-06)
(3.896781635983327836e-03 -7.534353865848280689e-07 4.672590368460071615e-06)
(3.918767285996774090e-03 -9.197930544401832963e-07 4.678281881888271151e-06)
(3.944084656011623974e-03 -9.354479542239115367e-07 4.582763466193011508e-06)
(3.972506823136226495e-03 -1.026613315886043646e-06 4.478636969262139278e-06)
(4.003710144629523369e-03 -1.235536579681963262e-06 4.327559648119593456e-06)
(4.037472387424366309e-03 -1.278882663466430603e-06 4.144707538215337292e-06)
(4.067208358942759304e-03 -1.254003017437576180e-06 3.932636891346973005e-06)
(4.106121754492807543e-03 -1.459825666092435982e-06 3.668173155678362443e-06)
(4.147574915268686588e-03 -1.625494804527350367e-06 3.576027381496500488e-06)
(4.191297053724649807e-03 -1.585836912345774717e-06 3.679324092693872676e-06)
(4.237048441862008123e-03 -1.622882383248038034e-06 3.882723158975490202e-06)
(4.284779291234736692e-03 -1.819156962387291028e-06 4.007462216324464770e-06)
(4.327447149060695969e-03 -1.832793537158369970e-06 4.039193815665001671e-06)
(4.378251821581129188e-03 -1.761663448285605084e-06 4.138392427036585686e-06)
(4.430432291597147243e-03 -1.899145896802474565e-06 4.353626855452682176e-06)
(4.477141487781000941e-03 -2.046161835899036256e-06 4.627054480758534280e-06)
(4.531885502414487871e-03 -1.961316808493192296e-06 4.848592747395729234e-06)
(4.587439039794111162e-03 -1.930813873061948638e-06 5.050800878839064060e-06)
(4.636287949911784001e-03 -2.061844394013811080e-06 5.193091240398058767e-06)
(4.692498397752867777e-03 -2.056288641048777973e-06 5.269288218726658479e-06)
(4.741609701551532073e-03 -1.933070806603631621e-06 5.350537965321716060e-06)
(4.797990162734093803e-03 -2.000530204789344107e-06 5.438124511376418211e-06)
(4.846623697940036918e-03 -2.084576961011181348e-06 5.495009766292090809e-06)
(4.902149512359513066e-03 -1.952559057977474092e-06 5.566892026685349279e-06)
(4.949505266854180123e-03 -1.862487989438559045e-06 5.702683937359843435e-06)
(4.995824368679974842e-03 -1.924394314653837511e-06 5.851750999297992381e-06)
(5.048509391715291783e-03 -1.880874403026134637e-06 6.017723549813760413e-06)
(5.092265399438353386e-03 -1.732505587753007181e-06 6.150937154120039543e-06)
(5.134555071472936792e-03 -1.716156555849017155e-06 6.215736419600497786e-06)
(5.182998512266020694e-03 -1.739320478642446512e-06 6.271789596535709995e-06)
(5.221669106086194480e-03 -1.587446794784700171e-06 6.321730523267856217e-06)
(5.258099662851196260e-03 -1.461138702185223735e-06 6.347591492195629945e-06)
(5.291523608299176888e-03 -1.439268263494267755e-06 6.375547349692609427e-06)
(5.322202455936107281e-03 -1.347949920842171055e-06 6.463989930933738593e-06)
(5.350024307785177652e-03 -1.206551322327071442e-06 6.559579903898598934e-06)
(5.383556888225808287e-03 -1.125269710862736591e-06 6.649308736572640379e-06)
(5.405481872300534063e-03 -1.042934524507983958e-06 6.690563903731967731e-06)
(5.424215312983635129e-03 -9.146176834873056574e-07 6.746232559416710502e-06)
(5.439478087868942352e-03 -7.924109105627475196e-07 6.756494323487180606e-06)
(5.450944601457859313e-03 -6.560369771659648127e-07 6.778289452740264689e-06)
(5.458481201888226025e-03 -5.084770092879396527e-07 6.864968882815944201e-06)
(5.461980833175564959e-03 -3.982379096138893881e-07 6.920290497328616795e-06)
(5.461419108116165669e-03 -2.535312405456028455e-07 6.919098232710944296e-06)
(5.456622667011293802e-03 -5.063289453140734835e-08 6.868655583004434544e-06)
(5.456435513487935263e-03 6.193294934746632494e-08 6.819134181249990627e-06)
(5.443129326726949858e-03 1.379895353932390567e-07 6.784456274688617882e-06)
(5.425379001660461838e-03 3.751171484891296747e-07 6.735511343806486639e-06)
(5.411996625828531006e-03 5.829493119326541123e-07 6.656896536537403322e-06)
(5.394196892868774115e-03 6.282696104622246767e-07 6.526067414496443292e-06)
(8.773572327982421051e-03 3.133197205579462277e-06 1.072683785523051847e-05)
(8.745769992587512642e-03 3.499912053212505889e-06 1.052474150063746809e-05)
(8.703255273135680758e-03 4.067246243683644452e-06 1.037286896407098380e-05)
(8.669822650609794110e-03 4.537394423281047813e-06 1.027290623222540149e-05)
(8.624056028201121729e-03 4.894064909586408477e-06 1.012683661116132516e-05)
(8.571350426265035571e-03 5.347941208844079824e-06 9.973959372470472733e-06)
(8.522794098048683958e-03 5.689416827017827772e-06 9.863076073472240755e-06)
(8.471487722340008755e-03 6.015206108075921414e-06 9.740859408481599552e-06)
(8.415026364391054586e-03 6.353888395921896044e-06 9.512722550573524582e-06)
(8.362713611944710967e-03 6.523411396485737318e-06 9.288878715944568040e-06)
(8.301716921699113516e-03 6.841497213370966979e-06 9.089455079984613294e-06)
(8.236870613055405355e-03 7.103496835548455847e-06 8.875347342071319713e-06)
(8.178908729857759657e-03 7.173212625668585705e-06 8.619019237732285593e-06)
(8.112784833822637293e-03 7.369931601688622661e-06 8.283882612634520460e-06)
(8.043244198903310230e-03 7.407699973319018906e-06 7.947941560687033240e-06)
(7.982574150989921180e-03 7.371544958949912183e-06 7.653815251108021946e-06)
(7.915664801123619906e-03 7.374347883707899327e-06 7.396987071348339626e-06)
(7.848401659460692292e-03 7.360571964522246459e-06 7.208300468472848186e-06)
(7.780680016228402190e-03 7.289483017671186322e-06 7.001630752656980536e-06)
(7.716249682958923467e-03 7.079916363450587574e-06 6.824408612640569245e-06)
(7.652500933708117348e-03 6.911589300000417343e-06 6.755878111236205182e-06)
(7.584540466994424759e-03 6.828554015870864104e-06 6.730964866573074372e-06)
(7.525522508248836881e-03 6.652655092939496757e-06 6.835091602567717721e-06)
(7.468932898876413581e-03 6.474645359550577052e-06 7.037665011235963687e-06)
(7.407807331835300317e-03 6.302805216966432723e-06 7.186003701123690611e-06)
(7.348561649438379792e-03 6.081996588764303528e-06 7.236055907865349493e-06)
(7.297702735586780384e-03 5.888873807807900895e-06 7.146193871084682729e-06)
(7.243825468164895483e-03 5.725780291760432365e-06 6.953688943820327940e-06)
(7.191946355430895062e-03 5.462448074017093233e-06 6.867778679073221735e-06)
(7.136965403371008793e-03 5.179160957303641870e-06 6.800117632584497547e-06)
(7.092373567842513368e-03 4.892788585616605650e-06 6.710038883185847329e-06)
(7.051141572659284061e-03 4.626995219550681148e-06 6.664631696254790363e-06)
(7.006758156694905398e-03 4.258534372706143980e-06 6.648463976311008199e-06)
(6.972800555477757026e-03 3.933397548581674786e-06 6.743461387078880483e-06)
(6.937175859462867480e-03 3.593435903461981599e-06 6.913931495282297018e-06)
(6.905621632148196444e-03 3.151668550844769555e-06 7.021025742379814428e-06)
(6.879573119288465329e-03 2.760233074812777844e-06 7.238812807958884096e-06)
(6.857557237100982313e-03 2.373995591072098435e-06 7.468888942510852863e-06)
(6.840101387038466721e-03 2.054850080117928777e-06 7.495268119725640547e-06)
(6.826481585567660895e-03 1.746021310488918747e-06 7.204390265664485226e-06)
(6.816723839025592285e-03 1.405352342223183910e-06 6.769074168855245371e-06)
(6.811445703609307276e-03 9.992096673806563104e-07 6.598855620713447371e-06)
(6.805302672122911199e-03 5.031141469415005877e-07 6.697761066538837963e-06)
(6.810495997381049021e-03 1.155634871452717954e-07 6.871029736112941070e-06)
(6.815173601749158205e-03 -3.547182587902158001e-07 7.108703414093512554e-06)
(6.831144245951750217e-03 -8.754015984094492584e-07 7.314063229735032648e-06)
(6.846373743923198432e-03 -1.280525418929278941e-06 7.624551379953092210e-06)
(6.866623602941776885e-03 -1.664706550755914821e-06 7.823980716014546839e-06)
(6.891778811958602230e-03 -2.060375647965064516e-06 7.941840337102133566e-06)
(6.921314471910197143e-03 -2.507920692134886446e-06 8.116613213483246590e-06)
(6.956064725181019051e-03 -2.924681240734775518e-06 8.324098230588556811e-06)
(6.994924343181931244e-03 -3.293351778166535019e-06 8.410463360170337748e-06)
(7.038547124039886034e-03 -3.781925309207478564e-06 8.326284734160446790e-06)
(7.081347913573219667e-03 -4.129442253785309310e-06 8.124504981047419506e-06)
(7.134269596885313251e-03 -4.424248629339802551e-06 7.844802164926569828e-06)
(7.192634620163967756e-03 -4.785647192012121525e-06 7.468333481836621153e-06)
(7.246881132481384526e-03 -5.194688408240490321e-06 7.115181866314353564e-06)
(7.312543982929771771e-03 -5.549974416116177091e-06 6.751845318804153336e-06)
(7.374996191233634812e-03 -5.783686942894541816e-06 6.546422965123171184e-06)
(7.439791887243133416e-03 -6.154645717242388688e-06 6.652950234376837522e-06)
(7.508873415005604644e-03 -6.352965149972769577e-06 6.947866952355498435e-06)
(7.579577428194072750e-03 -6.500727638653750152e-06 7.166564911363519018e-06)
(7.654701517099546208e-03 -6.725665353739795859e-06 7.279709271288183702e-06)
(7.729587455436208281e-03 -7.005392233665842408e-06 7.425249637853866843e-06)
(7.807199785523033682e-03 -7.087732729689336118e-06 7.734966716879650091e-06)
(7.887461141994640129e-03 -7.239462879382422264e-06 8.164949154635099972e-06)
(7.960214121292363484e-03 -7.435694810906501686e-06 8.499349219796975010e-06)
(8.042093245693007764e-03 -7.436703646442146306e-06 8.805397286891520080e-06)
(8.115847396742656775e-03 -7.373874701221859375e-06 9.071859988214558986e-06)
(8.191656883146323717e-03 -7.383302487640857843e-06 9.249844131460964686e-06)
(8.264232555788260728e-03 -7.478126518079508736e-06 9.410253895497623037e-06)
(8.338551134831530959e-03 -7.415689265543174615e-06 9.561452958801579136e-06)
(8.410140002247164237e-03 -7.260414857078612259e-06 9.668305564044911909e-06)
(8.480061566666873690e-03 -7.228852126966583731e-06 9.770620438577021626e-06)
(8.550340861423330260e-03 -7.090876162397161764e-06 9.963340920599379321e-06)
(8.609402206741870525e-03 -6.875916064045345413e-06 1.020107146179811273e-05)
(8.674340553075764876e-03 -6.619716414573107523e-06 1.049571494763204355e-05)
(8.727273306882072507e-03 -6.508844840028154816e-06 1.070325614536522888e-05)
(8.778727466707440114e-03 -6.217914835300611920e-06 1.081674470479049231e-05)
(8.835187541666806449e-03 -5.973497065028252263e-06 1.088622896245336240e-05)
(8.880277856179763160e-03 -5.662708241573019212e-06 1.095000959803369377e-05)
(8.920864771668271520e-03 -5.377750011977418876e-06 1.098423807279425331e-05)
(8.949241084731468510e-03 -5.005877757420265878e-06 1.102503101268572458e-05)
(8.980564305253360691e-03 -4.636769322414773092e-06 1.114266693846553712e-05)
(9.007923732628713917e-03 -4.238208476937660571e-06 1.128025438075976179e-05)
(9.030278068028793625e-03 -3.858788107971992715e-06 1.138807291597096019e-05)
(9.039045590614525061e-03 -3.449377185985409008e-06 1.142989753339501284e-05)
(9.050867187137859662e-03 -3.033101429623414361e-06 1.149208584051215925e-05)
(9.049474800311528913e-03 -2.550067779212075511e-06 1.151643131410153326e-05)
(9.050063505435718136e-03 -2.063218376007740776e-06 1.155211612899327653e-05)
(9.036459088956746641e-03 -1.573362685694967134e-06 1.163077759822336252e-05)
(9.024766278816070963e-03 -1.067922041580670297e-06 1.167490745757272563e-05)
(9.006880788818328459e-03 -5.841956013696467473e-07 1.164691097422562632e-05)
(8.982484942407765321e-03 -3.742608314260625234e-08 1.155658377263358703e-05)
(8.951988672842780756e-03 4.876596640584471917e-07 1.144980068059463913e-05)
(8.914668463351538286e-03 9.918077712719493503e-07 1.137572343321325407e-05)
(8.878893079484565312e-03 1.558700399570586029e-06 1.129809071843467940e-05)
(8.845370090184809242e-03 2.056530947997465840e-06 1.115391935648060265e-05)
(8.804582539333609056e-03 2.530269732696409359e-06 1.093466117981779887e-05)
(1.199549579394453350e-02 6.292035687095756682e-06 1.501771093824424437e-05)
(1.195088518974418701e-02 7.155070966577734316e-06 1.478075887429710073e-05)
(1.190605016583073938e-02 8.150791859257000137e-06 1.459769291579309541e-05)
(1.186127509377616490e-02 9.060342837939970839e-06 1.447237158468358351e-05)
(1.180828092142777001e-02 9.848346588126894241e-06 1.432018804237297672e-05)
(1.175065376543062146e-02 1.065409848360675076e-05 1.411142450964470047e-05)
(1.169414476616334464e-02 1.128687073215537762e-05 1.395368637647013933e-05)
(1.163132290021445803e-02 1.192503712574317068e-05 1.382618979960582742e-05)
(1.157224615603386596e-02 1.252426042186760059e-05 1.362243760807838809e-05)
(1.150754572580811944e-02 1.308327206634968384e-05 1.338167034736725171e-05)
(1.144150362386447961e-02 1.348399743894858903e-05 1.308944685621556324e-05)
(1.137296818867673115e-02 1.392016110320508380e-05 1.276833460881117081e-05)
(1.130122032705751026e-02 1.414859209854423336e-05 1.243612285790192793e-05)
(1.122847490120489067e-02 1.441684254353890992e-05 1.206874806709921227e-05)
(1.115699654076845494e-02 1.448796271531203464e-05 1.176672145016415501e-05)
(1.108402636088483273e-02 1.444164732271123436e-05 1.149686230684146058e-05)
(1.101240314399789741e-02 1.451269419300653103e-05 1.130028305769030378e-05)
(1.094199397835860475e-02 1.443568439508696567e-05 1.117405345688949388e-05)
(1.086646325299545426e-02 1.420996842995812051e-05 1.094709222747608720e-05)
(1.079411655964611708e-02 1.402415604915828212e-05 1.068847398821562696e-05)
(1.072423541720252463e-02 1.368622814465422110e-05 1.057885682512051588e-05)
(1.065565926784558040e-02 1.339743143419059950e-05 1.045371906521961911e-05)
(1.059095099037366504e-02 1.308164704859261202e-05 1.045406568488732210e-05)
(1.052370181993576848e-02 1.277547075900338923e-05 1.059651731672035305e-05)
(1.046546791736338924e-02 1.238144715241167463e-05 1.073404385209008650e-05)
(1.040449491704177783e-02 1.198447604351549050e-05 1.081172705133973660e-05)
(1.034216292865471412e-02 1.162807558454290158e-05 1.076627598410670060e-05)
(1.028820430980713005e-02 1.120735166653280093e-05 1.064176228151132519e-05)
(1.023324620653800511e-02 1.068598290856101035e-05 1.058066944473466798e-05)
(1.018228654903546686e-02 1.013345275289406379e-05 1.055713186286186435e-05)
(1.013591621650812222e-02 9.558558463751911193e-06 1.044408585929045706e-05)
(1.008894372518742873e-02 8.969036512888319354e-06 1.036726832564290649e-05)
(1.005226032047159754e-02 8.310112013397643555e-06 1.033464339094319678e-05)
(1.001542740507757254e-02 7.582344134110219766e-06 1.046500561481761888e-05)
(9.979280583181308895e-03 6.856264748978580900e-06 1.068781390272048983e-05)
(9.954189069538406723e-03 6.018291657812285282e-06 1.086692445076309585e-05)
(9.929857110476829340e-03 5.173470919560442488e-06 1.104079906621098153e-05)
(9.917012982203002314e-03 4.408341299153134869e-06 1.122885739869037761e-05)
(9.904365540972575807e-03 3.753107232728530589e-06 1.123173295871469240e-05)
(9.897335674280754655e-03 3.043180796386348396e-06 1.093239921986393333e-05)
(9.890485238300047305e-03 2.313319771530167009e-06 1.046470307835810975e-05)
(9.895001561730631251e-03 1.510585320290021639e-06 1.022993647300672856e-05)
(9.900802518558193127e-03 5.347760122674988952e-07 1.033337063227950162e-05)
(9.913621355481183617e-03 -3.872105511699827022e-07 1.053116543442495626e-05)
(9.932717110352051043e-03 -1.328488490089733223e-06 1.086727472577812324e-05)
(9.958547775521763012e-03 -2.265283536367136407e-06 1.115887047550935029e-05)
(9.986621041552927111e-03 -3.170772595496301591e-06 1.159828330212685099e-05)
(1.002553651085577070e-02 -4.033699777300503103e-06 1.193873574596386516e-05)
(1.006581549600990208e-02 -4.850482272860107368e-06 1.214189324199392212e-05)
(1.011272767845650816e-02 -5.692020874597979008e-06 1.236687227009634885e-05)
(1.016487812173136503e-02 -6.561529015675555038e-06 1.261084402532184495e-05)
(1.022403025997160875e-02 -7.391264286651980855e-06 1.272184900934505339e-05)
(1.028249450964450681e-02 -8.227585804323419595e-06 1.266757275321442661e-05)
(1.035292815387228380e-02 -9.004363475773631073e-06 1.240998661249820266e-05)
(1.042257915813855906e-02 -9.769161145926007309e-06 1.196226786105054669e-05)
(1.049714989696563967e-02 -1.041592627411168712e-05 1.147321159636104677e-05)
(1.057733265653745813e-02 -1.108939140384986407e-05 1.104115420301068982e-05)
(1.066123026360535180e-02 -1.181640426690441358e-05 1.064894839217586862e-05)
(1.074443040351847831e-02 -1.240437273536722443e-05 1.034964039259066992e-05)
(1.083150355877963468e-02 -1.295168302919340406e-05 1.035249062317866885e-05)
(1.092772827590504300e-02 -1.338153402285278989e-05 1.061218249648851169e-05)
(1.101408870730843925e-02 -1.382127846464178409e-05 1.086714326477971492e-05)
(1.110896001771318267e-02 -1.418787806234093031e-05 1.108551743112563893e-05)
(1.120753262085653901e-02 -1.455836007447372185e-05 1.131801140520832486e-05)
(1.130186414362041938e-02 -1.481080291289535375e-05 1.162738715390912992e-05)
(1.139629043060030010e-02 -1.508429254046109020e-05 1.201646390581467194e-05)
(1.149263427124073110e-02 -1.525484805518090292e-05 1.234665335815113047e-05)
(1.158868937419597553e-02 -1.523862508360089335e-05 1.267393291398695789e-05)
(1.167770818849599504e-02 -1.522113061769782073e-05 1.304419635639451523e-05)
(1.177303552829593418e-02 -1.522774283183307465e-05 1.335802271977505271e-05)
(1.185933864453889673e-02 -1.507263538133830986e-05 1.361349155210101295e-05)
(1.193934946237944564e-02 -1.486403269091645334e-05 1.383433126559488401e-05)
(1.202247394600735458e-02 -1.467190322556236235e-05 1.403028557446391203e-05)
(1.209756355091096830e-02 -1.439726990535890457e-05 1.420755062797419025e-05)
(1.216873798585210026e-02 -1.403044360996786777e-05 1.444714102122187834e-05)
(1.223704724726697168e-02 -1.365113501004842084e-05 1.476661122741169058e-05)
(1.229523846333715163e-02 -1.312781342949993856e-05 1.511288899569395775e-05)
(1.235653677900580213e-02 -1.268224473640121744e-05 1.536923753871906296e-05)
(1.240617632384534777e-02 -1.219508298718166204e-05 1.552386282903987861e-05)